  12  12   0   0
  0.9947349E+01  0.2857513E-09  0.4498365E-09  0.9286365E-09  0.5000000E-15
  1.000000000000000E-004
  CAR 
 unknown system                          
     10.14425597    -51.65336356  301      3.60400790      1.00000000
    -51.653  0.0000E+00  0.0000E+00  0.0000E+00  0.0000E+00
    -51.447  0.0000E+00  0.0000E+00  0.0000E+00  0.0000E+00
    -51.241  0.0000E+00  0.0000E+00  0.0000E+00  0.0000E+00
    -51.035  0.0000E+00  0.0000E+00  0.0000E+00  0.0000E+00
    -50.829  0.0000E+00  0.0000E+00  0.0000E+00  0.0000E+00
    -50.623  0.0000E+00  0.0000E+00  0.0000E+00  0.0000E+00
    -50.417  0.0000E+00  0.0000E+00  0.0000E+00  0.0000E+00
    -50.211  0.0000E+00  0.0000E+00  0.0000E+00  0.0000E+00
    -50.005  0.0000E+00  0.0000E+00  0.0000E+00  0.0000E+00
    -49.799  0.0000E+00  0.0000E+00  0.0000E+00  0.0000E+00
    -49.593  0.0000E+00  0.0000E+00  0.0000E+00  0.0000E+00
    -49.387  0.0000E+00  0.0000E+00  0.0000E+00  0.0000E+00
    -49.181  0.0000E+00  0.0000E+00  0.0000E+00  0.0000E+00
    -48.975  0.0000E+00  0.0000E+00  0.0000E+00  0.0000E+00
    -48.769  0.6212E+01  0.6213E+01  0.1280E+01  0.1280E+01
    -48.563  0.0000E+00  0.0000E+00  0.6000E+01  0.6000E+01
    -48.357  0.0000E+00  0.0000E+00  0.6000E+01  0.6000E+01
    -48.151  0.0000E+00  0.0000E+00  0.6000E+01  0.6000E+01
    -47.946  0.0000E+00  0.0000E+00  0.6000E+01  0.6000E+01
    -47.740  0.0000E+00  0.0000E+00  0.6000E+01  0.6000E+01
    -47.534  0.0000E+00  0.0000E+00  0.6000E+01  0.6000E+01
    -47.328  0.0000E+00  0.0000E+00  0.6000E+01  0.6000E+01
    -47.122  0.0000E+00  0.0000E+00  0.6000E+01  0.6000E+01
    -46.916  0.0000E+00  0.0000E+00  0.6000E+01  0.6000E+01
    -46.710  0.0000E+00  0.0000E+00  0.6000E+01  0.6000E+01
    -46.504  0.0000E+00  0.0000E+00  0.6000E+01  0.6000E+01
    -46.298  0.0000E+00  0.0000E+00  0.6000E+01  0.6000E+01
    -46.092  0.0000E+00  0.0000E+00  0.6000E+01  0.6000E+01
    -45.886  0.0000E+00  0.0000E+00  0.6000E+01  0.6000E+01
    -45.680  0.0000E+00  0.0000E+00  0.6000E+01  0.6000E+01
    -45.474  0.0000E+00  0.0000E+00  0.6000E+01  0.6000E+01
    -45.268  0.0000E+00  0.0000E+00  0.6000E+01  0.6000E+01
    -45.062  0.0000E+00  0.0000E+00  0.6000E+01  0.6000E+01
    -44.856  0.3579E+01  0.3579E+01  0.6737E+01  0.6737E+01
    -44.650  0.8946E+01  0.8946E+01  0.1000E+02  0.1000E+02
    -44.444  0.0000E+00  0.0000E+00  0.1200E+02  0.1200E+02
    -44.238  0.0000E+00  0.0000E+00  0.1200E+02  0.1200E+02
    -44.032  0.0000E+00  0.0000E+00  0.1200E+02  0.1200E+02
    -43.826  0.0000E+00  0.0000E+00  0.1200E+02  0.1200E+02
    -43.620  0.0000E+00  0.0000E+00  0.1200E+02  0.1200E+02
    -43.414  0.0000E+00  0.0000E+00  0.1200E+02  0.1200E+02
    -43.208  0.0000E+00  0.0000E+00  0.1200E+02  0.1200E+02
    -43.002  0.0000E+00  0.0000E+00  0.1200E+02  0.1200E+02
    -42.796  0.0000E+00  0.0000E+00  0.1200E+02  0.1200E+02
    -42.590  0.0000E+00  0.0000E+00  0.1200E+02  0.1200E+02
    -42.384  0.0000E+00  0.0000E+00  0.1200E+02  0.1200E+02
    -42.178  0.0000E+00  0.0000E+00  0.1200E+02  0.1200E+02
    -41.972  0.0000E+00  0.0000E+00  0.1200E+02  0.1200E+02
    -41.766  0.0000E+00  0.0000E+00  0.1200E+02  0.1200E+02
    -41.560  0.0000E+00  0.0000E+00  0.1200E+02  0.1200E+02
    -41.354  0.0000E+00  0.0000E+00  0.1200E+02  0.1200E+02
    -41.148  0.0000E+00  0.0000E+00  0.1200E+02  0.1200E+02
    -40.942  0.0000E+00  0.0000E+00  0.1200E+02  0.1200E+02
    -40.736  0.0000E+00  0.0000E+00  0.1200E+02  0.1200E+02
    -40.530  0.0000E+00  0.0000E+00  0.1200E+02  0.1200E+02
    -40.324  0.0000E+00  0.0000E+00  0.1200E+02  0.1200E+02
    -40.118  0.0000E+00  0.0000E+00  0.1200E+02  0.1200E+02
    -39.912  0.0000E+00  0.0000E+00  0.1200E+02  0.1200E+02
    -39.706  0.0000E+00  0.0000E+00  0.1200E+02  0.1200E+02
    -39.500  0.0000E+00  0.0000E+00  0.1200E+02  0.1200E+02
    -39.294  0.0000E+00  0.0000E+00  0.1200E+02  0.1200E+02
    -39.088  0.0000E+00  0.0000E+00  0.1200E+02  0.1200E+02
    -38.882  0.0000E+00  0.0000E+00  0.1200E+02  0.1200E+02
    -38.676  0.0000E+00  0.0000E+00  0.1200E+02  0.1200E+02
    -38.470  0.0000E+00  0.0000E+00  0.1200E+02  0.1200E+02
    -38.264  0.0000E+00  0.0000E+00  0.1200E+02  0.1200E+02
    -38.058  0.0000E+00  0.0000E+00  0.1200E+02  0.1200E+02
    -37.852  0.0000E+00  0.0000E+00  0.1200E+02  0.1200E+02
    -37.646  0.0000E+00  0.0000E+00  0.1200E+02  0.1200E+02
    -37.440  0.0000E+00  0.0000E+00  0.1200E+02  0.1200E+02
    -37.234  0.0000E+00  0.0000E+00  0.1200E+02  0.1200E+02
    -37.028  0.0000E+00  0.0000E+00  0.1200E+02  0.1200E+02
    -36.822  0.0000E+00  0.0000E+00  0.1200E+02  0.1200E+02
    -36.616  0.0000E+00  0.0000E+00  0.1200E+02  0.1200E+02
    -36.410  0.0000E+00  0.0000E+00  0.1200E+02  0.1200E+02
    -36.204  0.0000E+00  0.0000E+00  0.1200E+02  0.1200E+02
    -35.998  0.0000E+00  0.0000E+00  0.1200E+02  0.1200E+02
    -35.792  0.0000E+00  0.0000E+00  0.1200E+02  0.1200E+02
    -35.586  0.0000E+00  0.0000E+00  0.1200E+02  0.1200E+02
    -35.380  0.0000E+00  0.0000E+00  0.1200E+02  0.1200E+02
    -35.174  0.0000E+00  0.0000E+00  0.1200E+02  0.1200E+02
    -34.968  0.0000E+00  0.0000E+00  0.1200E+02  0.1200E+02
    -34.762  0.0000E+00  0.0000E+00  0.1200E+02  0.1200E+02
    -34.556  0.0000E+00  0.0000E+00  0.1200E+02  0.1200E+02
    -34.350  0.0000E+00  0.0000E+00  0.1200E+02  0.1200E+02
    -34.144  0.0000E+00  0.0000E+00  0.1200E+02  0.1200E+02
    -33.938  0.0000E+00  0.0000E+00  0.1200E+02  0.1200E+02
    -33.732  0.0000E+00  0.0000E+00  0.1200E+02  0.1200E+02
    -33.526  0.0000E+00  0.0000E+00  0.1200E+02  0.1200E+02
    -33.320  0.0000E+00  0.0000E+00  0.1200E+02  0.1200E+02
    -33.114  0.0000E+00  0.0000E+00  0.1200E+02  0.1200E+02
    -32.908  0.0000E+00  0.0000E+00  0.1200E+02  0.1200E+02
    -32.702  0.0000E+00  0.0000E+00  0.1200E+02  0.1200E+02
    -32.496  0.0000E+00  0.0000E+00  0.1200E+02  0.1200E+02
    -32.290  0.0000E+00  0.0000E+00  0.1200E+02  0.1200E+02
    -32.084  0.0000E+00  0.0000E+00  0.1200E+02  0.1200E+02
    -31.878  0.0000E+00  0.0000E+00  0.1200E+02  0.1200E+02
    -31.672  0.0000E+00  0.0000E+00  0.1200E+02  0.1200E+02
    -31.466  0.0000E+00  0.0000E+00  0.1200E+02  0.1200E+02
    -31.260  0.0000E+00  0.0000E+00  0.1200E+02  0.1200E+02
    -31.054  0.0000E+00  0.0000E+00  0.1200E+02  0.1200E+02
    -30.848  0.0000E+00  0.0000E+00  0.1200E+02  0.1200E+02
    -30.642  0.0000E+00  0.0000E+00  0.1200E+02  0.1200E+02
    -30.436  0.0000E+00  0.0000E+00  0.1200E+02  0.1200E+02
    -30.230  0.0000E+00  0.0000E+00  0.1200E+02  0.1200E+02
    -30.024  0.0000E+00  0.0000E+00  0.1200E+02  0.1200E+02
    -29.818  0.0000E+00  0.0000E+00  0.1200E+02  0.1200E+02
    -29.612  0.0000E+00  0.0000E+00  0.1200E+02  0.1200E+02
    -29.406  0.0000E+00  0.0000E+00  0.1200E+02  0.1200E+02
    -29.200  0.0000E+00  0.0000E+00  0.1200E+02  0.1200E+02
    -28.994  0.0000E+00  0.0000E+00  0.1200E+02  0.1200E+02
    -28.788  0.0000E+00  0.0000E+00  0.1200E+02  0.1200E+02
    -28.582  0.0000E+00  0.0000E+00  0.1200E+02  0.1200E+02
    -28.376  0.0000E+00  0.0000E+00  0.1200E+02  0.1200E+02
    -28.170  0.0000E+00  0.0000E+00  0.1200E+02  0.1200E+02
    -27.964  0.0000E+00  0.0000E+00  0.1200E+02  0.1200E+02
    -27.758  0.0000E+00  0.0000E+00  0.1200E+02  0.1200E+02
    -27.552  0.0000E+00  0.0000E+00  0.1200E+02  0.1200E+02
    -27.346  0.0000E+00  0.0000E+00  0.1200E+02  0.1200E+02
    -27.140  0.0000E+00  0.0000E+00  0.1200E+02  0.1200E+02
    -26.934  0.0000E+00  0.0000E+00  0.1200E+02  0.1200E+02
    -26.728  0.0000E+00  0.0000E+00  0.1200E+02  0.1200E+02
    -26.522  0.0000E+00  0.0000E+00  0.1200E+02  0.1200E+02
    -26.316  0.0000E+00  0.0000E+00  0.1200E+02  0.1200E+02
    -26.110  0.0000E+00  0.0000E+00  0.1200E+02  0.1200E+02
    -25.904  0.0000E+00  0.0000E+00  0.1200E+02  0.1200E+02
    -25.698  0.0000E+00  0.0000E+00  0.1200E+02  0.1200E+02
    -25.492  0.0000E+00  0.0000E+00  0.1200E+02  0.1200E+02
    -25.286  0.0000E+00  0.0000E+00  0.1200E+02  0.1200E+02
    -25.080  0.0000E+00  0.0000E+00  0.1200E+02  0.1200E+02
    -24.874  0.0000E+00  0.0000E+00  0.1200E+02  0.1200E+02
    -24.668  0.0000E+00  0.0000E+00  0.1200E+02  0.1200E+02
    -24.462  0.0000E+00  0.0000E+00  0.1200E+02  0.1200E+02
    -24.256  0.0000E+00  0.0000E+00  0.1200E+02  0.1200E+02
    -24.050  0.0000E+00  0.0000E+00  0.1200E+02  0.1200E+02
    -23.844  0.0000E+00  0.0000E+00  0.1200E+02  0.1200E+02
    -23.638  0.0000E+00  0.0000E+00  0.1200E+02  0.1200E+02
    -23.432  0.0000E+00  0.0000E+00  0.1200E+02  0.1200E+02
    -23.226  0.0000E+00  0.0000E+00  0.1200E+02  0.1200E+02
    -23.020  0.0000E+00  0.0000E+00  0.1200E+02  0.1200E+02
    -22.814  0.0000E+00  0.0000E+00  0.1200E+02  0.1200E+02
    -22.608  0.0000E+00  0.0000E+00  0.1200E+02  0.1200E+02
    -22.402  0.0000E+00  0.0000E+00  0.1200E+02  0.1200E+02
    -22.196  0.0000E+00  0.0000E+00  0.1200E+02  0.1200E+02
    -21.991  0.0000E+00  0.0000E+00  0.1200E+02  0.1200E+02
    -21.785  0.0000E+00  0.0000E+00  0.1200E+02  0.1200E+02
    -21.579  0.0000E+00  0.0000E+00  0.1200E+02  0.1200E+02
    -21.373  0.0000E+00  0.0000E+00  0.1200E+02  0.1200E+02
    -21.167  0.0000E+00  0.0000E+00  0.1200E+02  0.1200E+02
    -20.961  0.0000E+00  0.0000E+00  0.1200E+02  0.1200E+02
    -20.755  0.0000E+00  0.0000E+00  0.1200E+02  0.1200E+02
    -20.549  0.0000E+00  0.0000E+00  0.1200E+02  0.1200E+02
    -20.343  0.0000E+00  0.0000E+00  0.1200E+02  0.1200E+02
    -20.137  0.0000E+00  0.0000E+00  0.1200E+02  0.1200E+02
    -19.931  0.0000E+00  0.0000E+00  0.1200E+02  0.1200E+02
    -19.725  0.0000E+00  0.0000E+00  0.1200E+02  0.1200E+02
    -19.519  0.0000E+00  0.0000E+00  0.1200E+02  0.1200E+02
    -19.313  0.0000E+00  0.0000E+00  0.1200E+02  0.1200E+02
    -19.107  0.0000E+00  0.0000E+00  0.1200E+02  0.1200E+02
    -18.901  0.0000E+00  0.0000E+00  0.1200E+02  0.1200E+02
    -18.695  0.0000E+00  0.0000E+00  0.1200E+02  0.1200E+02
    -18.489  0.0000E+00  0.0000E+00  0.1200E+02  0.1200E+02
    -18.283  0.0000E+00  0.0000E+00  0.1200E+02  0.1200E+02
    -18.077  0.0000E+00  0.0000E+00  0.1200E+02  0.1200E+02
    -17.871  0.0000E+00  0.0000E+00  0.1200E+02  0.1200E+02
    -17.665  0.0000E+00  0.0000E+00  0.1200E+02  0.1200E+02
    -17.459  0.0000E+00  0.0000E+00  0.1200E+02  0.1200E+02
    -17.253  0.0000E+00  0.0000E+00  0.1200E+02  0.1200E+02
    -17.047  0.0000E+00  0.0000E+00  0.1200E+02  0.1200E+02
    -16.841  0.0000E+00  0.0000E+00  0.1200E+02  0.1200E+02
    -16.635  0.1664E+00  0.1664E+00  0.1204E+02  0.1204E+02
    -16.429  0.3111E+00  0.3111E+00  0.1219E+02  0.1219E+02
    -16.223  0.8322E+00  0.8322E+00  0.1250E+02  0.1250E+02
    -16.017  0.4570E+00  0.4570E+00  0.1282E+02  0.1282E+02
    -15.811  0.5025E+00  0.5025E+00  0.1313E+02  0.1313E+02
    -15.605  0.6114E+00  0.6115E+00  0.1341E+02  0.1341E+02
    -15.399  0.7984E+00  0.7984E+00  0.1383E+02  0.1383E+02
    -15.193  0.6004E+00  0.6005E+00  0.1446E+02  0.1446E+02
    -14.987  0.2125E+01  0.2126E+01  0.1565E+02  0.1565E+02
    -14.781  0.3504E+01  0.3504E+01  0.1741E+02  0.1741E+02
    -14.575  0.2378E+01  0.2378E+01  0.1980E+02  0.1980E+02
    -14.369  0.0000E+00  0.0000E+00  0.2000E+02  0.2000E+02
    -14.163  0.0000E+00  0.0000E+00  0.2000E+02  0.2000E+02
    -13.957  0.0000E+00  0.0000E+00  0.2000E+02  0.2000E+02
    -13.751  0.0000E+00  0.0000E+00  0.2000E+02  0.2000E+02
    -13.545  0.0000E+00  0.0000E+00  0.2000E+02  0.2000E+02
    -13.339  0.0000E+00  0.0000E+00  0.2000E+02  0.2000E+02
    -13.133  0.0000E+00  0.0000E+00  0.2000E+02  0.2000E+02
    -12.927  0.0000E+00  0.0000E+00  0.2000E+02  0.2000E+02
    -12.721  0.0000E+00  0.0000E+00  0.2000E+02  0.2000E+02
    -12.515  0.0000E+00  0.0000E+00  0.2000E+02  0.2000E+02
    -12.309  0.0000E+00  0.0000E+00  0.2000E+02  0.2000E+02
    -12.103  0.0000E+00  0.0000E+00  0.2000E+02  0.2000E+02
    -11.897  0.0000E+00  0.0000E+00  0.2000E+02  0.2000E+02
    -11.691  0.0000E+00  0.0000E+00  0.2000E+02  0.2000E+02
    -11.485  0.0000E+00  0.0000E+00  0.2000E+02  0.2000E+02
    -11.279  0.0000E+00  0.0000E+00  0.2000E+02  0.2000E+02
    -11.073  0.0000E+00  0.0000E+00  0.2000E+02  0.2000E+02
    -10.867  0.0000E+00  0.0000E+00  0.2000E+02  0.2000E+02
    -10.661  0.0000E+00  0.0000E+00  0.2000E+02  0.2000E+02
    -10.455  0.0000E+00  0.0000E+00  0.2000E+02  0.2000E+02
    -10.249  0.0000E+00  0.0000E+00  0.2000E+02  0.2000E+02
    -10.043  0.0000E+00  0.0000E+00  0.2000E+02  0.2000E+02
     -9.837  0.0000E+00  0.0000E+00  0.2000E+02  0.2000E+02
     -9.631  0.0000E+00  0.0000E+00  0.2000E+02  0.2000E+02
     -9.425  0.0000E+00  0.0000E+00  0.2000E+02  0.2000E+02
     -9.219  0.0000E+00  0.0000E+00  0.2000E+02  0.2000E+02
     -9.013  0.0000E+00  0.0000E+00  0.2000E+02  0.2000E+02
     -8.807  0.0000E+00  0.0000E+00  0.2000E+02  0.2000E+02
     -8.601  0.0000E+00  0.0000E+00  0.2000E+02  0.2000E+02
     -8.395  0.0000E+00  0.0000E+00  0.2000E+02  0.2000E+02
     -8.189  0.0000E+00  0.0000E+00  0.2000E+02  0.2000E+02
     -7.983  0.0000E+00  0.0000E+00  0.2000E+02  0.2000E+02
     -7.777  0.0000E+00  0.0000E+00  0.2000E+02  0.2000E+02
     -7.571  0.0000E+00  0.0000E+00  0.2000E+02  0.2000E+02
     -7.365  0.0000E+00  0.0000E+00  0.2000E+02  0.2000E+02
     -7.159  0.0000E+00  0.0000E+00  0.2000E+02  0.2000E+02
     -6.953  0.0000E+00  0.0000E+00  0.2000E+02  0.2000E+02
     -6.747  0.0000E+00  0.0000E+00  0.2000E+02  0.2000E+02
     -6.541  0.0000E+00  0.0000E+00  0.2000E+02  0.2000E+02
     -6.335  0.0000E+00  0.0000E+00  0.2000E+02  0.2000E+02
     -6.129  0.0000E+00  0.0000E+00  0.2000E+02  0.2000E+02
     -5.923  0.0000E+00  0.0000E+00  0.2000E+02  0.2000E+02
     -5.717  0.0000E+00  0.0000E+00  0.2000E+02  0.2000E+02
     -5.511  0.0000E+00  0.0000E+00  0.2000E+02  0.2000E+02
     -5.305  0.0000E+00  0.0000E+00  0.2000E+02  0.2000E+02
     -5.099  0.0000E+00  0.0000E+00  0.2000E+02  0.2000E+02
     -4.893  0.0000E+00  0.0000E+00  0.2000E+02  0.2000E+02
     -4.687  0.0000E+00  0.0000E+00  0.2000E+02  0.2000E+02
     -4.481  0.0000E+00  0.0000E+00  0.2000E+02  0.2000E+02
     -4.275  0.0000E+00  0.0000E+00  0.2000E+02  0.2000E+02
     -4.069  0.0000E+00  0.0000E+00  0.2000E+02  0.2000E+02
     -3.863  0.0000E+00  0.0000E+00  0.2000E+02  0.2000E+02
     -3.657  0.0000E+00  0.0000E+00  0.2000E+02  0.2000E+02
     -3.451  0.3673E-11  0.3706E-11  0.2000E+02  0.2000E+02
     -3.245  0.3002E+00  0.3003E+00  0.2007E+02  0.2007E+02
     -3.039  0.5964E+00  0.5965E+00  0.2034E+02  0.2034E+02
     -2.833  0.1888E+01  0.1888E+01  0.2096E+02  0.2096E+02
     -2.627  0.8370E+00  0.8372E+00  0.2153E+02  0.2153E+02
     -2.421  0.7251E+00  0.7252E+00  0.2211E+02  0.2211E+02
     -2.215  0.3332E+01  0.3332E+01  0.2316E+02  0.2316E+02
     -2.009  0.2434E+01  0.2434E+01  0.2427E+02  0.2427E+02
     -1.803  0.3528E+01  0.3528E+01  0.2588E+02  0.2588E+02
     -1.597  0.2792E+01  0.2792E+01  0.2718E+02  0.2718E+02
     -1.391  0.4092E+00  0.4092E+00  0.2793E+02  0.2793E+02
     -1.185  0.1570E+01  0.1570E+01  0.2862E+02  0.2862E+02
     -0.979  0.1935E+01  0.1935E+01  0.2972E+02  0.2972E+02
     -0.773  0.8880E+00  0.8880E+00  0.3042E+02  0.3042E+02
     -0.567  0.1823E+01  0.1823E+01  0.3131E+02  0.3131E+02
     -0.361  0.1097E+01  0.1097E+01  0.3219E+02  0.3219E+02
     -0.155  0.1568E+01  0.1568E+01  0.3296E+02  0.3296E+02
      0.051  0.2228E+01  0.2228E+01  0.3390E+02  0.3390E+02
      0.257  0.2666E+01  0.2666E+01  0.3515E+02  0.3515E+02
      0.463  0.2232E+01  0.2232E+01  0.3624E+02  0.3624E+02
      0.669  0.1509E+01  0.1509E+01  0.3734E+02  0.3734E+02
      0.875  0.1248E+01  0.1248E+01  0.3809E+02  0.3809E+02
      1.081  0.1776E+01  0.1776E+01  0.3925E+02  0.3925E+02
      1.287  0.1737E+01  0.1737E+01  0.3996E+02  0.3996E+02
      1.493  0.2320E+01  0.2320E+01  0.4094E+02  0.4094E+02
      1.699  0.1933E+01  0.1933E+01  0.4192E+02  0.4192E+02
      1.905  0.2230E+01  0.2230E+01  0.4306E+02  0.4306E+02
      2.111  0.2649E+01  0.2649E+01  0.4426E+02  0.4426E+02
      2.317  0.2439E+01  0.2439E+01  0.4563E+02  0.4563E+02
      2.523  0.1348E+01  0.1348E+01  0.4645E+02  0.4645E+02
      2.729  0.1939E+01  0.1939E+01  0.4726E+02  0.4726E+02
      2.935  0.3468E+00  0.3468E+00  0.4797E+02  0.4797E+02
      3.141  0.1304E+01  0.1304E+01  0.4835E+02  0.4835E+02
      3.347  0.1741E+01  0.1741E+01  0.4939E+02  0.4939E+02
      3.553  0.3468E-01  0.3468E-01  0.5000E+02  0.5000E+02
      3.759  0.0000E+00  0.0000E+00  0.5000E+02  0.5000E+02
      3.964  0.0000E+00  0.0000E+00  0.5000E+02  0.5000E+02
      4.170  0.0000E+00  0.0000E+00  0.5000E+02  0.5000E+02
      4.376  0.0000E+00  0.0000E+00  0.5000E+02  0.5000E+02
      4.582  0.0000E+00  0.0000E+00  0.5000E+02  0.5000E+02
      4.788  0.0000E+00  0.0000E+00  0.5000E+02  0.5000E+02
      4.994  0.0000E+00  0.0000E+00  0.5000E+02  0.5000E+02
      5.200  0.4897E+00  0.4897E+00  0.5010E+02  0.5010E+02
      5.406  0.1258E+01  0.1258E+01  0.5065E+02  0.5065E+02
      5.612  0.2247E+01  0.2247E+01  0.5156E+02  0.5156E+02
      5.818  0.2424E+01  0.2424E+01  0.5260E+02  0.5260E+02
      6.024  0.2808E+01  0.2807E+01  0.5377E+02  0.5377E+02
      6.230  0.3047E+01  0.3047E+01  0.5508E+02  0.5508E+02
      6.436  0.7050E+00  0.7050E+00  0.5594E+02  0.5594E+02
      6.642  0.2440E+01  0.2440E+01  0.5687E+02  0.5687E+02
      6.848  0.1626E+01  0.1627E+01  0.5776E+02  0.5776E+02
      7.054  0.2639E+01  0.2639E+01  0.5889E+02  0.5889E+02
      7.260  0.1312E+01  0.1242E+01  0.5996E+02  0.5994E+02
      7.466  0.0000E+00  0.0000E+00  0.6000E+02  0.6000E+02
      7.672  0.0000E+00  0.0000E+00  0.6000E+02  0.6000E+02
      7.878  0.0000E+00  0.0000E+00  0.6000E+02  0.6000E+02
      8.084  0.0000E+00  0.0000E+00  0.6000E+02  0.6000E+02
      8.290  0.0000E+00  0.0000E+00  0.6000E+02  0.6000E+02
      8.496  0.0000E+00  0.0000E+00  0.6000E+02  0.6000E+02
      8.702  0.0000E+00  0.0000E+00  0.6000E+02  0.6000E+02
      8.908  0.0000E+00  0.0000E+00  0.6000E+02  0.6000E+02
      9.114  0.0000E+00  0.0000E+00  0.6000E+02  0.6000E+02
      9.320  0.0000E+00  0.0000E+00  0.6000E+02  0.6000E+02
      9.526  0.0000E+00  0.0000E+00  0.6000E+02  0.6000E+02
      9.732  0.0000E+00  0.0000E+00  0.6000E+02  0.6000E+02
      9.938  0.0000E+00  0.0000E+00  0.6000E+02  0.6000E+02
     10.144  0.0000E+00  0.0000E+00  0.6000E+02  0.6000E+02
