 vasp.5.4.4.18Apr17-6-g9f103f2a35 (build Nov 08 2022 17:27:33) complex          
  
 executed on             LinuxIFC date 2022.11.23  00:37:32
 running on   16 total cores
 distrk:  each k-point on   16 cores,    1 groups
 distr:  one band on NCORES_PER_BAND=   4 cores,    4 groups


--------------------------------------------------------------------------------------------------------


 INCAR:
 POTCAR:    PAW_PBE Mn_pv 02Aug2007               
 POTCAR:    PAW_PBE O 08Apr2002                   
 POTCAR:    PAW_PBE Mn_pv 02Aug2007               
   VRHFIN =Mn: 3p4s3d                                                           
   LEXCH  = PE                                                                  
   EATOM  =  2025.2664 eV,  148.8529 Ry                                         
                                                                                
   TITEL  = PAW_PBE Mn_pv 02Aug2007                                             
   LULTRA =        F    use ultrasoft PP ?                                      
   IUNSCR =        1    unscreen: 0-lin 1-nonlin 2-no                           
   RPACOR =    2.080    partial core radius                                     
   POMASS =   54.938; ZVAL   =   13.000    mass and valenz                      
   RCORE  =    2.300    outmost cutoff radius                                   
   RWIGS  =    2.500; RWIGS  =    1.323    wigner-seitz radius (au A)           
   ENMAX  =  269.864; ENMIN  =  202.398 eV                                      
   ICORE  =        3    local potential                                         
   LCOR   =        T    correct aug charges                                     
   LPAW   =        T    paw PP                                                  
   EAUG   =  569.085                                                            
   DEXC   =    0.000                                                            
   RMAX   =    2.343    core radius for proj-oper                               
   RAUG   =    1.300    factor for augmentation sphere                          
   RDEP   =    2.338    radius for radial grids                                 
   RDEPT  =    1.798    core radius for aug-charge                              
                                                                                
   Atomic configuration                                                         
    8 entries                                                                   
     n  l   j            E        occ.                                          
     1  0  0.50     -6424.8287   2.0000                                         
     2  0  0.50      -739.1154   2.0000                                         
     2  1  1.50      -625.3949   6.0000                                         
     3  0  0.50       -81.6100   2.0000                                         
     3  1  1.50       -50.4667   6.0000                                         
     3  2  2.50        -3.3745   6.0000                                         
     4  0  0.50        -4.1331   1.0000                                         
     4  3  2.50        -1.3606   0.0000                                         
   Description                                                                  
     l       E           TYP  RCUT    TYP  RCUT                                 
     1    -50.4666628     23  2.000                                             
     1     -1.3605826     23  2.000                                             
     2     -3.3744729     23  2.300                                             
     2     -4.7350555     23  2.300                                             
     0     -4.1331431     23  2.300                                             
     0      7.6656591     23  2.300                                             
     3      9.5240782     23  2.300                                             
  local pseudopotential read in
  partial core-charges read in
  partial kinetic energy density read in
  atomic valenz-charges read in
  non local Contribution for L=           1  read in
    real space projection operators read in
  non local Contribution for L=           1  read in
    real space projection operators read in
  non local Contribution for L=           2  read in
    real space projection operators read in
  non local Contribution for L=           2  read in
    real space projection operators read in
  non local Contribution for L=           0  read in
    real space projection operators read in
  non local Contribution for L=           0  read in
    real space projection operators read in
    PAW grid and wavefunctions read in
 
   number of l-projection  operators is LMAX  =           6
   number of lm-projection operators is LMMAX =          18
 
 POTCAR:    PAW_PBE O 08Apr2002                   
   VRHFIN =O: s2p4                                                              
   LEXCH  = PE                                                                  
   EATOM  =   432.3788 eV,   31.7789 Ry                                         
                                                                                
   TITEL  = PAW_PBE O 08Apr2002                                                 
   LULTRA =        F    use ultrasoft PP ?                                      
   IUNSCR =        1    unscreen: 0-lin 1-nonlin 2-no                           
   RPACOR =    1.200    partial core radius                                     
   POMASS =   16.000; ZVAL   =    6.000    mass and valenz                      
   RCORE  =    1.520    outmost cutoff radius                                   
   RWIGS  =    1.550; RWIGS  =    0.820    wigner-seitz radius (au A)           
   ENMAX  =  400.000; ENMIN  =  300.000 eV                                      
   ICORE  =        2    local potential                                         
   LCOR   =        T    correct aug charges                                     
   LPAW   =        T    paw PP                                                  
   EAUG   =  605.392                                                            
   DEXC   =    0.000                                                            
   RMAX   =    1.553    core radius for proj-oper                               
   RAUG   =    1.300    factor for augmentation sphere                          
   RDEP   =    1.550    radius for radial grids                                 
   RDEPT  =    1.329    core radius for aug-charge                              
                                                                                
   Atomic configuration                                                         
    4 entries                                                                   
     n  l   j            E        occ.                                          
     1  0  0.50      -514.6923   2.0000                                         
     2  0  0.50       -23.9615   2.0000                                         
     2  1  0.50        -9.0305   4.0000                                         
     3  2  1.50        -9.5241   0.0000                                         
   Description                                                                  
     l       E           TYP  RCUT    TYP  RCUT                                 
     0    -23.9615318     23  1.200                                             
     0     -9.5240782     23  1.200                                             
     1     -9.0304911     23  1.520                                             
     1      8.1634956     23  1.520                                             
     2     -9.5240782      7  1.500                                             
  local pseudopotential read in
  partial core-charges read in
  partial kinetic energy density read in
  kinetic energy density of atom read in
  atomic valenz-charges read in
  non local Contribution for L=           0  read in
    real space projection operators read in
  non local Contribution for L=           0  read in
    real space projection operators read in
  non local Contribution for L=           1  read in
    real space projection operators read in
  non local Contribution for L=           1  read in
    real space projection operators read in
    PAW grid and wavefunctions read in
 
   number of l-projection  operators is LMAX  =           4
   number of lm-projection operators is LMMAX =           8
 
  PAW_PBE Mn_pv 02Aug2007               :
 energy of atom  1       EATOM=-2025.2664
 kinetic energy error for atom=    0.0058 (will be added to EATOM!!)
  PAW_PBE O 08Apr2002                   :
 energy of atom  2       EATOM= -432.3788
 kinetic energy error for atom=    0.0208 (will be added to EATOM!!)
 
 
 POSCAR: Mn4 O8                                  
  positions in direct lattice
  velocities in cartesian coordinates

 METAGGA = R2SCA    LMAXTAU =  6    LMIXTAU =  T

 exchange correlation table for  LEXCH =        8
   RHO(1)=    0.500       N(1)  =     2000
   RHO(2)=  100.500       N(2)  =     4000

 VTST: version 3.2, (02/03/18)

 CHAIN: initializing optimizer
 
 OPT: Using VASP Conjugate-Gradient optimizer
 CHAIN: Read ICHAIN            0
 
 POSCAR: Mn4 O8                                  
  positions in direct lattice
  velocities in cartesian coordinates
 


--------------------------------------------------------------------------------------------------------


 ion  position               nearest neighbor table
   1  0.250  0.018  0.866-  12 1.88  12 1.88  10 1.89   6 1.90   6 1.90   7 1.90   2 2.88   2 2.88

   2  0.750  0.982  0.134-   9 1.88   9 1.88  11 1.89   7 1.90   7 1.90   6 1.90   1 2.88   1 2.88

   3  0.750  0.518  0.634-  10 1.88  10 1.88  12 1.89   5 1.90   5 1.90   8 1.90   4 2.88   4 2.88

   4  0.250  0.482  0.366-  11 1.88  11 1.88   9 1.89   8 1.90   8 1.90   5 1.90   3 2.88   3 2.88

   5  0.250  0.712  0.538-   3 1.90   3 1.90   4 1.90
   6  0.750  0.212  0.962-   1 1.90   1 1.90   2 1.90
   7  0.250  0.788  0.038-   2 1.90   2 1.90   1 1.90
   8  0.750  0.288  0.462-   4 1.90   4 1.90   3 1.90
   9  0.250  0.195  0.217-   2 1.88   2 1.88   4 1.89
  10  0.250  0.305  0.717-   3 1.88   3 1.88   1 1.89
  11  0.750  0.695  0.283-   4 1.88   4 1.88   2 1.89
  12  0.750  0.805  0.783-   1 1.88   1 1.88   3 1.89
 

IMPORTANT INFORMATION: All symmetrisations will be switched off!
NOSYMM: (Re-)initialisation of all symmetry stuff for point group C_1.

 
 

Automatic generation of k-mesh.
 generate k-points for:   10    7    4
Space group operators:
 irot       det(A)        alpha          n_x          n_y          n_z        tau_x        tau_y        tau_z
    1     1.000000     0.000000     1.000000     0.000000     0.000000     0.000000     0.000000     0.000000
 
 Subroutine IBZKPT returns following result:
 ===========================================
 
 Found    142 irreducible k-points:
 
 Following reciprocal coordinates:
            Coordinates               Weight
  0.000000  0.000000  0.000000      1.000000
  0.100000  0.000000 -0.000000      2.000000
  0.200000  0.000000 -0.000000      2.000000
  0.300000 -0.000000  0.000000      2.000000
  0.400000  0.000000 -0.000000      2.000000
  0.500000  0.000000  0.000000      1.000000
  0.000000  0.142857 -0.000000      2.000000
  0.100000  0.142857 -0.000000      2.000000
  0.200000  0.142857 -0.000000      2.000000
  0.300000  0.142857 -0.000000      2.000000
  0.400000  0.142857  0.000000      2.000000
  0.500000  0.142857  0.000000      2.000000
 -0.400000  0.142857  0.000000      2.000000
 -0.300000  0.142857 -0.000000      2.000000
 -0.200000  0.142857  0.000000      2.000000
 -0.100000  0.142857 -0.000000      2.000000
  0.000000  0.285714 -0.000000      2.000000
  0.100000  0.285714 -0.000000      2.000000
  0.200000  0.285714 -0.000000      2.000000
  0.300000  0.285714  0.000000      2.000000
  0.400000  0.285714 -0.000000      2.000000
  0.500000  0.285714 -0.000000      2.000000
 -0.400000  0.285714  0.000000      2.000000
 -0.300000  0.285714  0.000000      2.000000
 -0.200000  0.285714 -0.000000      2.000000
 -0.100000  0.285714 -0.000000      2.000000
  0.000000  0.428571 -0.000000      2.000000
  0.100000  0.428571 -0.000000      2.000000
  0.200000  0.428571 -0.000000      2.000000
  0.300000  0.428571 -0.000000      2.000000
  0.400000  0.428571 -0.000000      2.000000
  0.500000  0.428571 -0.000000      2.000000
 -0.400000  0.428571  0.000000      2.000000
 -0.300000  0.428571 -0.000000      2.000000
 -0.200000  0.428571  0.000000      2.000000
 -0.100000  0.428571 -0.000000      2.000000
  0.000000 -0.000000  0.250000      2.000000
  0.100000 -0.000000  0.250000      2.000000
  0.200000 -0.000000  0.250000      2.000000
  0.300000 -0.000000  0.250000      2.000000
  0.400000  0.000000  0.250000      2.000000
  0.500000  0.000000  0.250000      2.000000
 -0.400000 -0.000000  0.250000      2.000000
 -0.300000 -0.000000  0.250000      2.000000
 -0.200000  0.000000  0.250000      2.000000
 -0.100000 -0.000000  0.250000      2.000000
  0.000000  0.142857  0.250000      2.000000
  0.100000  0.142857  0.250000      2.000000
  0.200000  0.142857  0.250000      2.000000
  0.300000  0.142857  0.250000      2.000000
  0.400000  0.142857  0.250000      2.000000
  0.500000  0.142857  0.250000      2.000000
 -0.400000  0.142857  0.250000      2.000000
 -0.300000  0.142857  0.250000      2.000000
 -0.200000  0.142857  0.250000      2.000000
 -0.100000  0.142857  0.250000      2.000000
  0.000000  0.285714  0.250000      2.000000
  0.100000  0.285714  0.250000      2.000000
  0.200000  0.285714  0.250000      2.000000
  0.300000  0.285714  0.250000      2.000000
  0.400000  0.285714  0.250000      2.000000
  0.500000  0.285714  0.250000      2.000000
 -0.400000  0.285714  0.250000      2.000000
 -0.300000  0.285714  0.250000      2.000000
 -0.200000  0.285714  0.250000      2.000000
 -0.100000  0.285714  0.250000      2.000000
  0.000000  0.428571  0.250000      2.000000
  0.100000  0.428571  0.250000      2.000000
  0.200000  0.428571  0.250000      2.000000
  0.300000  0.428571  0.250000      2.000000
  0.400000  0.428571  0.250000      2.000000
  0.500000  0.428571  0.250000      2.000000
 -0.400000  0.428571  0.250000      2.000000
 -0.300000  0.428571  0.250000      2.000000
 -0.200000  0.428571  0.250000      2.000000
 -0.100000  0.428571  0.250000      2.000000
  0.000000 -0.428571  0.250000      2.000000
  0.100000 -0.428571  0.250000      2.000000
  0.200000 -0.428571  0.250000      2.000000
  0.300000 -0.428571  0.250000      2.000000
  0.400000 -0.428571  0.250000      2.000000
  0.500000 -0.428571  0.250000      2.000000
 -0.400000 -0.428571  0.250000      2.000000
 -0.300000 -0.428571  0.250000      2.000000
 -0.200000 -0.428571  0.250000      2.000000
 -0.100000 -0.428571  0.250000      2.000000
  0.000000 -0.285714  0.250000      2.000000
  0.100000 -0.285714  0.250000      2.000000
  0.200000 -0.285714  0.250000      2.000000
  0.300000 -0.285714  0.250000      2.000000
  0.400000 -0.285714  0.250000      2.000000
  0.500000 -0.285714  0.250000      2.000000
 -0.400000 -0.285714  0.250000      2.000000
 -0.300000 -0.285714  0.250000      2.000000
 -0.200000 -0.285714  0.250000      2.000000
 -0.100000 -0.285714  0.250000      2.000000
 -0.000000 -0.142857  0.250000      2.000000
  0.100000 -0.142857  0.250000      2.000000
  0.200000 -0.142857  0.250000      2.000000
  0.300000 -0.142857  0.250000      2.000000
  0.400000 -0.142857  0.250000      2.000000
  0.500000 -0.142857  0.250000      2.000000
 -0.400000 -0.142857  0.250000      2.000000
 -0.300000 -0.142857  0.250000      2.000000
 -0.200000 -0.142857  0.250000      2.000000
 -0.100000 -0.142857  0.250000      2.000000
  0.000000 -0.000000  0.500000      1.000000
  0.100000  0.000000  0.500000      2.000000
  0.200000 -0.000000  0.500000      2.000000
  0.300000 -0.000000  0.500000      2.000000
  0.400000 -0.000000  0.500000      2.000000
  0.500000 -0.000000  0.500000      1.000000
  0.000000  0.142857  0.500000      2.000000
  0.100000  0.142857  0.500000      2.000000
  0.200000  0.142857  0.500000      2.000000
  0.300000  0.142857  0.500000      2.000000
  0.400000  0.142857  0.500000      2.000000
  0.500000  0.142857  0.500000      2.000000
 -0.400000  0.142857  0.500000      2.000000
 -0.300000  0.142857  0.500000      2.000000
 -0.200000  0.142857  0.500000      2.000000
 -0.100000  0.142857  0.500000      2.000000
  0.000000  0.285714  0.500000      2.000000
  0.100000  0.285714  0.500000      2.000000
  0.200000  0.285714  0.500000      2.000000
  0.300000  0.285714  0.500000      2.000000
  0.400000  0.285714  0.500000      2.000000
  0.500000  0.285714  0.500000      2.000000
 -0.400000  0.285714  0.500000      2.000000
 -0.300000  0.285714  0.500000      2.000000
 -0.200000  0.285714  0.500000      2.000000
 -0.100000  0.285714  0.500000      2.000000
  0.000000  0.428571  0.500000      2.000000
  0.100000  0.428571  0.500000      2.000000
  0.200000  0.428571  0.500000      2.000000
  0.300000  0.428571  0.500000      2.000000
  0.400000  0.428571  0.500000      2.000000
  0.500000  0.428571  0.500000      2.000000
 -0.400000  0.428571  0.500000      2.000000
 -0.300000  0.428571  0.500000      2.000000
 -0.200000  0.428571  0.500000      2.000000
 -0.100000  0.428571  0.500000      2.000000
 
 Following cartesian coordinates:
            Coordinates               Weight
  0.000000  0.000000  0.000000      1.000000
  0.034995 -0.000000 -0.000000      2.000000
  0.069991 -0.000000 -0.000000      2.000000
  0.104986 -0.000000 -0.000000      2.000000
  0.139982 -0.000000 -0.000000      2.000000
  0.174977 -0.000000 -0.000000      1.000000
 -0.000000  0.031758  0.000000      2.000000
  0.034995  0.031758  0.000000      2.000000
  0.069991  0.031758 -0.000000      2.000000
  0.104986  0.031758 -0.000000      2.000000
  0.139982  0.031758 -0.000000      2.000000
  0.174977  0.031758 -0.000000      2.000000
 -0.139982  0.031758  0.000000      2.000000
 -0.104986  0.031758  0.000000      2.000000
 -0.069991  0.031758  0.000000      2.000000
 -0.034995  0.031758  0.000000      2.000000
 -0.000000  0.063515  0.000000      2.000000
  0.034995  0.063515  0.000000      2.000000
  0.069991  0.063515  0.000000      2.000000
  0.104986  0.063515 -0.000000      2.000000
  0.139982  0.063515 -0.000000      2.000000
  0.174977  0.063515 -0.000000      2.000000
 -0.139982  0.063515  0.000000      2.000000
 -0.104986  0.063515  0.000000      2.000000
 -0.069991  0.063515  0.000000      2.000000
 -0.034995  0.063515  0.000000      2.000000
 -0.000000  0.095273  0.000000      2.000000
  0.034995  0.095273  0.000000      2.000000
  0.069991  0.095273  0.000000      2.000000
  0.104986  0.095273  0.000000      2.000000
  0.139982  0.095273 -0.000000      2.000000
  0.174977  0.095273 -0.000000      2.000000
 -0.139982  0.095273  0.000000      2.000000
 -0.104986  0.095273  0.000000      2.000000
 -0.069991  0.095273  0.000000      2.000000
 -0.034995  0.095273  0.000000      2.000000
  0.000000  0.000000  0.026921      2.000000
  0.034995  0.000000  0.026921      2.000000
  0.069991  0.000000  0.026921      2.000000
  0.104986  0.000000  0.026921      2.000000
  0.139982  0.000000  0.026921      2.000000
  0.174977  0.000000  0.026921      2.000000
 -0.139982  0.000000  0.026921      2.000000
 -0.104986  0.000000  0.026921      2.000000
 -0.069991  0.000000  0.026921      2.000000
 -0.034995  0.000000  0.026921      2.000000
 -0.000000  0.031758  0.026921      2.000000
  0.034995  0.031758  0.026921      2.000000
  0.069991  0.031758  0.026921      2.000000
  0.104986  0.031758  0.026921      2.000000
  0.139982  0.031758  0.026921      2.000000
  0.174977  0.031758  0.026921      2.000000
 -0.139982  0.031758  0.026921      2.000000
 -0.104986  0.031758  0.026921      2.000000
 -0.069991  0.031758  0.026921      2.000000
 -0.034995  0.031758  0.026921      2.000000
 -0.000000  0.063515  0.026921      2.000000
  0.034995  0.063515  0.026921      2.000000
  0.069991  0.063515  0.026921      2.000000
  0.104986  0.063515  0.026921      2.000000
  0.139982  0.063515  0.026921      2.000000
  0.174977  0.063515  0.026921      2.000000
 -0.139982  0.063515  0.026921      2.000000
 -0.104986  0.063515  0.026921      2.000000
 -0.069991  0.063515  0.026921      2.000000
 -0.034995  0.063515  0.026921      2.000000
 -0.000000  0.095273  0.026921      2.000000
  0.034995  0.095273  0.026921      2.000000
  0.069991  0.095273  0.026921      2.000000
  0.104986  0.095273  0.026921      2.000000
  0.139982  0.095273  0.026921      2.000000
  0.174977  0.095273  0.026921      2.000000
 -0.139982  0.095273  0.026921      2.000000
 -0.104986  0.095273  0.026921      2.000000
 -0.069991  0.095273  0.026921      2.000000
 -0.034995  0.095273  0.026921      2.000000
  0.000000 -0.095273  0.026921      2.000000
  0.034995 -0.095273  0.026921      2.000000
  0.069991 -0.095273  0.026921      2.000000
  0.104986 -0.095273  0.026921      2.000000
  0.139982 -0.095273  0.026921      2.000000
  0.174977 -0.095273  0.026921      2.000000
 -0.139982 -0.095273  0.026921      2.000000
 -0.104986 -0.095273  0.026921      2.000000
 -0.069991 -0.095273  0.026921      2.000000
 -0.034995 -0.095273  0.026921      2.000000
  0.000000 -0.063515  0.026921      2.000000
  0.034995 -0.063515  0.026921      2.000000
  0.069991 -0.063515  0.026921      2.000000
  0.104986 -0.063515  0.026921      2.000000
  0.139982 -0.063515  0.026921      2.000000
  0.174977 -0.063515  0.026921      2.000000
 -0.139982 -0.063515  0.026921      2.000000
 -0.104986 -0.063515  0.026921      2.000000
 -0.069991 -0.063515  0.026921      2.000000
 -0.034995 -0.063515  0.026921      2.000000
  0.000000 -0.031758  0.026921      2.000000
  0.034995 -0.031758  0.026921      2.000000
  0.069991 -0.031758  0.026921      2.000000
  0.104986 -0.031758  0.026921      2.000000
  0.139982 -0.031758  0.026921      2.000000
  0.174977 -0.031758  0.026921      2.000000
 -0.139982 -0.031758  0.026921      2.000000
 -0.104986 -0.031758  0.026921      2.000000
 -0.069991 -0.031758  0.026921      2.000000
 -0.034995 -0.031758  0.026921      2.000000
  0.000000  0.000000  0.053842      1.000000
  0.034995  0.000000  0.053842      2.000000
  0.069991  0.000000  0.053842      2.000000
  0.104986  0.000000  0.053842      2.000000
  0.139982  0.000000  0.053842      2.000000
  0.174977  0.000000  0.053842      1.000000
 -0.000000  0.031758  0.053842      2.000000
  0.034995  0.031758  0.053842      2.000000
  0.069991  0.031758  0.053842      2.000000
  0.104986  0.031758  0.053842      2.000000
  0.139982  0.031758  0.053842      2.000000
  0.174977  0.031758  0.053842      2.000000
 -0.139982  0.031758  0.053842      2.000000
 -0.104986  0.031758  0.053842      2.000000
 -0.069991  0.031758  0.053842      2.000000
 -0.034995  0.031758  0.053842      2.000000
 -0.000000  0.063515  0.053842      2.000000
  0.034995  0.063515  0.053842      2.000000
  0.069991  0.063515  0.053842      2.000000
  0.104986  0.063515  0.053842      2.000000
  0.139982  0.063515  0.053842      2.000000
  0.174977  0.063515  0.053842      2.000000
 -0.139982  0.063515  0.053842      2.000000
 -0.104986  0.063515  0.053842      2.000000
 -0.069991  0.063515  0.053842      2.000000
 -0.034995  0.063515  0.053842      2.000000
 -0.000000  0.095273  0.053842      2.000000
  0.034995  0.095273  0.053842      2.000000
  0.069991  0.095273  0.053842      2.000000
  0.104986  0.095273  0.053842      2.000000
  0.139982  0.095273  0.053842      2.000000
  0.174977  0.095273  0.053842      2.000000
 -0.139982  0.095273  0.053842      2.000000
 -0.104986  0.095273  0.053842      2.000000
 -0.069991  0.095273  0.053842      2.000000
 -0.034995  0.095273  0.053842      2.000000
 


--------------------------------------------------------------------------------------------------------




 Dimension of arrays:
   k-points           NKPTS =    142   k-points in BZ     NKDIM =    142   number of bands    NBANDS=     60
   number of dos      NEDOS =    301   number of ions     NIONS =     12
   non local maximal  LDIM  =      6   non local SUM 2l+1 LMDIM =     18
   total plane-waves  NPLWV =  60480
   max r-space proj   IRMAX =      1   max aug-charges    IRDMAX=  15571
   dimension x,y,z NGX =    24 NGY =   36 NGZ =   70
   dimension x,y,z NGXF=    48 NGYF=   72 NGZF=  140
   support grid    NGXF=    48 NGYF=   72 NGZF=  140
   ions per type =               4   8
   NGX,Y,Z   is equivalent  to a cutoff of  13.96, 13.30, 12.53 a.u.
   NGXF,Y,Z  is equivalent  to a cutoff of  27.93, 26.61, 25.06 a.u.

 SYSTEM =  unknown system                          
 POSCAR =  Mn4 O8                                  

 Startparameter for this run:
   NWRITE =      2    write-flag & timer
   PREC   = accura    normal or accurate (medium, high low for compatibility)
   ISTART =      1    job   : 0-new  1-cont  2-samecut
   ICHARG =      0    charge: 1-file 2-atom 10-const
   ISPIN  =      2    spin polarized calculation?
   LNONCOLLINEAR =      F non collinear calculations
   LSORBIT =      F    spin-orbit coupling
   INIWAV =      1    electr: 0-lowe 1-rand  2-diag
   LASPH  =      T    aspherical Exc in radial PAW
   METAGGA=      F    non-selfconsistent MetaGGA calc.

 Electronic Relaxation 1
   ENCUT  =  520.0 eV  38.22 Ry    6.18 a.u.   5.31  8.36 17.27*2*pi/ulx,y,z
   ENINI  =  520.0     initial cutoff
   ENAUG  = 1040.0 eV  augmentation charge cutoff
   NELM   =    200;   NELMIN=  2; NELMDL=  0     # of ELM steps 
   EDIFF  = 0.1E-05   stopping-criterion for ELM
   LREAL  =      F    real-space projection
   NLSPLINE    = F    spline interpolate recip. space projectors
   LCOMPAT=      F    compatible to vasp.4.4
   GGA_COMPAT  = T    GGA compatible to vasp.4.4-vasp.4.6
   LMAXPAW     = -100 max onsite density
   LMAXMIX     =    4 max onsite mixed and CHGCAR
   VOSKOWN=      0    Vosko Wilk Nusair interpolation
   ROPT   =    0.00000   0.00000
 Ionic relaxation
   EDIFFG = -.3E-01   stopping-criterion for IOM
   NSW    =      0    number of steps for IOM
   NBLOCK =      1;   KBLOCK =      1    inner block; outer block 
   IBRION =     -1    ionic relax: 0-MD 1-quasi-New 2-CG
   NFREE  =      1    steps in history (QN), initial steepest desc. (CG)
   ISIF   =      3    stress and relaxation
   IWAVPR =     10    prediction:  0-non 1-charg 2-wave 3-comb
   ISYM   =      0    0-nonsym 1-usesym 2-fastsym
   LCORR  =      T    Harris-Foulkes like correction to forces

   POTIM  = 0.5000    time-step for ionic-motion
   TEIN   =    0.0    initial temperature
   TEBEG  =    0.0;   TEEND  =   0.0 temperature during run
   SMASS  =  -3.00    Nose mass-parameter (am)
   estimated Nose-frequenzy (Omega)   =  0.10E-29 period in steps =****** mass=  -0.187E-27a.u.
   SCALEE = 1.0000    scale energy and forces
   NPACO  =    256;   APACO  = 16.0  distance and # of slots for P.C.
   PSTRESS=    0.0 pullay stress

  Mass of Ions in am
   POMASS =  54.94 16.00
  Ionic Valenz
   ZVAL   =  13.00  6.00
  Atomic Wigner-Seitz radii
   RWIGS  =  -1.00 -1.00
  virtual crystal weights 
   VCA    =   1.00  1.00
   NELECT =     100.0000    total number of electrons
   NUPDOWN=      -1.0000    fix difference up-down

 DOS related values:
   EMIN   =  10.00;   EMAX   =-10.00  energy-range for DOS
   EFERMI =   0.00
   ISMEAR =     0;   SIGMA  =   0.01  broadening in eV -4-tet -1-fermi 0-gaus

 Electronic relaxation 2 (details)
   IALGO  =     58    algorithm
   LDIAG  =      T    sub-space diagonalisation (order eigenvalues)
   LSUBROT=      F    optimize rotation matrix (better conditioning)
   TURBO    =      0    0=normal 1=particle mesh
   IRESTART =      0    0=no restart 2=restart with 2 vectors
   NREBOOT  =      0    no. of reboots
   NMIN     =      0    reboot dimension
   EREF     =   0.00    reference energy to select bands
   IMIX   =      4    mixing-type and parameters
     AMIX     =   0.40;   BMIX     =  1.00
     AMIX_MAG =   1.60;   BMIX_MAG =  1.00
     AMIN     =   0.10
     WC   =   100.;   INIMIX=   1;  MIXPRE=   1;  MAXMIX= -45

 Intra band minimization:
   WEIMIN = 0.0000     energy-eigenvalue tresh-hold
   EBREAK =  0.42E-08  absolut break condition
   DEPER  =   0.30     relativ break condition  

   TIME   =   0.40     timestep for ELM

  volume/ion in A,a.u.               =       9.95        67.13
  Fermi-wavevector in a.u.,A,eV,Ry     =   1.543282  2.916380 32.405260  2.381719
  Thomas-Fermi vector in A             =   2.648967
 
 Write flags
   LWAVE        =      T    write WAVECAR
   LDOWNSAMPLE  =      F    k-point downsampling of WAVECAR
   LCHARG       =      T    write CHGCAR
   LVTOT        =      F    write LOCPOT, total local potential
   LVHAR        =      T    write LOCPOT, Hartree potential only
   LELF         =      T    write electronic localiz. function (ELF)
   LORBIT       =      0    0 simple, 1 ext, 2 COOP (PROOUT), +10 PAW based schemes


 Dipole corrections
   LMONO  =      F    monopole corrections only (constant potential shift)
   LDIPOL =      F    correct potential (dipole corrections)
   IDIPOL =      0    1-x, 2-y, 3-z, 4-all directions 
   EPSILON=  1.0000000 bulk dielectric constant

 Exchange correlation treatment:
   GGA     =    PE    GGA type
   LEXCH   =     8    internal setting for exchange type
   VOSKOWN=      0    Vosko Wilk Nusair interpolation
   LHFCALC =     F    Hartree Fock is set to
   LHFONE  =     F    Hartree Fock one center treatment
   AEXX    =    0.0000 exact exchange contribution

 Linear response parameters
   LEPSILON=     F    determine dielectric tensor
   LRPA    =     F    only Hartree local field effects (RPA)
   LNABLA  =     F    use nabla operator in PAW spheres
   LVEL    =     F    velocity operator in full k-point grid
   LINTERFAST=   F  fast interpolation
   KINTER  =     0    interpolate to denser k-point grid
   CSHIFT  =0.1000    complex shift for real part using Kramers Kronig
   OMEGAMAX=  -1.0    maximum frequency
   DEG_THRESHOLD= 0.2000000E-02 threshold for treating states as degnerate
   RTIME   =   -0.100 relaxation time in fs
  (WPLASMAI=    0.000 imaginary part of plasma frequency in eV, 0.658/RTIME)
   DFIELD  = 0.0000000 0.0000000 0.0000000 field for delta impulse in time
 
 Orbital magnetization related:
   ORBITALMAG=     F  switch on orbital magnetization
   LCHIMAG   =     F  perturbation theory with respect to B field
   DQ        =  0.001000  dq finite difference perturbation B field
   LLRAUG    =     F  two centre corrections for induced B field



--------------------------------------------------------------------------------------------------------


 Static calculation
 charge density and potential will be updated during run
 spin polarized calculation
 Conjugate gradient for all bands (Freysoldt, et al. PRB 79, 241103 (2009))
 preconditioned conjugated gradient                                        
 perform sub-space diagonalisation
    before iterative eigenvector-optimisation
 modified Broyden-mixing scheme, WC =      100.0
 initial mixing is a Kerker type mixing with AMIX =  0.4000 and BMIX =      1.0000
 Hartree-type preconditioning will be used
 using additional bands           10
 reciprocal scheme for non local part
 use partial core corrections
 no Harris-corrections to forces 
 use gradient corrections 
 use of overlap-Matrix (Vanderbilt PP)
 Gauss-broadening in eV      SIGMA  =   0.01


--------------------------------------------------------------------------------------------------------


  energy-cutoff  :      520.00
  volume of cell :      119.37
      direct lattice vectors                 reciprocal lattice vectors
     2.857512554  0.000000619 -0.000000203     0.349954718 -0.000000012 -0.000000092
     0.000000161  4.498364923 -0.000001088    -0.000000048  0.222302996  0.000000067
     0.000002437 -0.000002804  9.286365368     0.000000008  0.000000026  0.107684757

  length of vectors
     2.857512554  4.498364923  9.286365368     0.349954718  0.222302996  0.107684757


 
 old parameters found on file WAVECAR:
  energy-cutoff  :      520.00
  volume of cell :      123.79
      direct lattice vectors                 reciprocal lattice vectors
     2.873988171 -0.000003827 -0.000003143     0.347948544  0.000000522  0.000000263
    -0.000006910  4.602672104  0.000017294     0.000000289  0.217265097 -0.000000808
    -0.000007063  0.000034806  9.358283868     0.000000117 -0.000000402  0.106857199

  length of vectors

 
 k-points in units of 2pi/SCALE and weight: read from INCAR                         
   0.00000000  0.00000000  0.00000000       0.004
   0.03499547 -0.00000000 -0.00000001       0.007
   0.06999094 -0.00000000 -0.00000002       0.007
   0.10498642 -0.00000000 -0.00000003       0.007
   0.13998189 -0.00000000 -0.00000004       0.007
   0.17497736 -0.00000001 -0.00000005       0.004
  -0.00000001  0.03175757  0.00000001       0.007
   0.03499546  0.03175757  0.00000000       0.007
   0.06999094  0.03175757 -0.00000001       0.007
   0.10498641  0.03175757 -0.00000002       0.007
   0.13998188  0.03175757 -0.00000003       0.007
   0.17497735  0.03175756 -0.00000004       0.007
  -0.13998189  0.03175758  0.00000005       0.007
  -0.10498642  0.03175757  0.00000004       0.007
  -0.06999095  0.03175757  0.00000003       0.007
  -0.03499548  0.03175757  0.00000002       0.007
  -0.00000001  0.06351514  0.00000002       0.007
   0.03499546  0.06351514  0.00000001       0.007
   0.06999093  0.06351514  0.00000000       0.007
   0.10498640  0.06351514 -0.00000001       0.007
   0.13998187  0.06351514 -0.00000002       0.007
   0.17497735  0.06351514 -0.00000003       0.007
  -0.13998190  0.06351515  0.00000006       0.007
  -0.10498643  0.06351515  0.00000005       0.007
  -0.06999096  0.06351514  0.00000004       0.007
  -0.03499549  0.06351514  0.00000003       0.007
  -0.00000002  0.09527271  0.00000003       0.007
   0.03499545  0.09527271  0.00000002       0.007
   0.06999092  0.09527271  0.00000001       0.007
   0.10498639  0.09527271  0.00000000       0.007
   0.13998187  0.09527271 -0.00000001       0.007
   0.17497734  0.09527271 -0.00000002       0.007
  -0.13998191  0.09527272  0.00000007       0.007
  -0.10498644  0.09527272  0.00000006       0.007
  -0.06999096  0.09527272  0.00000005       0.007
  -0.03499549  0.09527271  0.00000004       0.007
   0.00000000  0.00000001  0.02692119       0.007
   0.03499547  0.00000001  0.02692118       0.007
   0.06999095  0.00000000  0.02692117       0.007
   0.10498642  0.00000000  0.02692116       0.007
   0.13998189  0.00000000  0.02692115       0.007
   0.17497736  0.00000000  0.02692114       0.007
  -0.13998189  0.00000001  0.02692123       0.007
  -0.10498641  0.00000001  0.02692122       0.007
  -0.06999094  0.00000001  0.02692121       0.007
  -0.03499547  0.00000001  0.02692120       0.007
  -0.00000000  0.03175758  0.02692120       0.007
   0.03499547  0.03175758  0.02692119       0.007
   0.06999094  0.03175757  0.02692118       0.007
   0.10498641  0.03175757  0.02692117       0.007
   0.13998188  0.03175757  0.02692116       0.007
   0.17497735  0.03175757  0.02692115       0.007
  -0.13998189  0.03175758  0.02692124       0.007
  -0.10498642  0.03175758  0.02692123       0.007
  -0.06999095  0.03175758  0.02692122       0.007
  -0.03499548  0.03175758  0.02692121       0.007
  -0.00000001  0.06351515  0.02692121       0.007
   0.03499546  0.06351515  0.02692120       0.007
   0.06999093  0.06351515  0.02692119       0.007
   0.10498640  0.06351514  0.02692118       0.007
   0.13998188  0.06351514  0.02692117       0.007
   0.17497735  0.06351514  0.02692116       0.007
  -0.13998190  0.06351515  0.02692125       0.007
  -0.10498643  0.06351515  0.02692124       0.007
  -0.06999096  0.06351515  0.02692123       0.007
  -0.03499548  0.06351515  0.02692122       0.007
  -0.00000002  0.09527272  0.02692122       0.007
   0.03499545  0.09527272  0.02692121       0.007
   0.06999092  0.09527272  0.02692120       0.007
   0.10498640  0.09527272  0.02692119       0.007
   0.13998187  0.09527271  0.02692118       0.007
   0.17497734  0.09527271  0.02692117       0.007
  -0.13998191  0.09527272  0.02692125       0.007
  -0.10498643  0.09527272  0.02692125       0.007
  -0.06999096  0.09527272  0.02692124       0.007
  -0.03499549  0.09527272  0.02692123       0.007
   0.00000002 -0.09527271  0.02692116       0.007
   0.03499549 -0.09527271  0.02692115       0.007
   0.06999097 -0.09527271  0.02692114       0.007
   0.10498644 -0.09527271  0.02692113       0.007
   0.13998191 -0.09527271  0.02692112       0.007
   0.17497738 -0.09527271  0.02692111       0.007
  -0.13998186 -0.09527270  0.02692120       0.007
  -0.10498639 -0.09527270  0.02692119       0.007
  -0.06999092 -0.09527270  0.02692118       0.007
  -0.03499545 -0.09527270  0.02692117       0.007
   0.00000002 -0.06351514  0.02692117       0.007
   0.03499549 -0.06351514  0.02692116       0.007
   0.06999096 -0.06351514  0.02692115       0.007
   0.10498643 -0.06351514  0.02692114       0.007
   0.13998190 -0.06351514  0.02692113       0.007
   0.17497737 -0.06351514  0.02692112       0.007
  -0.13998187 -0.06351513  0.02692121       0.007
  -0.10498640 -0.06351513  0.02692120       0.007
  -0.06999093 -0.06351513  0.02692119       0.007
  -0.03499546 -0.06351513  0.02692118       0.007
   0.00000001 -0.03175756  0.02692118       0.007
   0.03499548 -0.03175757  0.02692117       0.007
   0.06999095 -0.03175757  0.02692116       0.007
   0.10498642 -0.03175757  0.02692115       0.007
   0.13998190 -0.03175757  0.02692114       0.007
   0.17497737 -0.03175757  0.02692113       0.007
  -0.13998188 -0.03175756  0.02692122       0.007
  -0.10498641 -0.03175756  0.02692121       0.007
  -0.06999093 -0.03175756  0.02692120       0.007
  -0.03499546 -0.03175756  0.02692119       0.007
   0.00000000  0.00000001  0.05384238       0.004
   0.03499548  0.00000001  0.05384237       0.007
   0.06999095  0.00000001  0.05384236       0.007
   0.10498642  0.00000001  0.05384235       0.007
   0.13998189  0.00000001  0.05384234       0.007
   0.17497736  0.00000001  0.05384233       0.004
  -0.00000000  0.03175758  0.05384239       0.007
   0.03499547  0.03175758  0.05384238       0.007
   0.06999094  0.03175758  0.05384237       0.007
   0.10498641  0.03175758  0.05384236       0.007
   0.13998188  0.03175758  0.05384235       0.007
   0.17497736  0.03175758  0.05384234       0.007
  -0.13998189  0.03175759  0.05384242       0.007
  -0.10498642  0.03175759  0.05384242       0.007
  -0.06999095  0.03175759  0.05384241       0.007
  -0.03499547  0.03175759  0.05384240       0.007
  -0.00000001  0.06351515  0.05384240       0.007
   0.03499546  0.06351515  0.05384239       0.007
   0.06999093  0.06351515  0.05384238       0.007
   0.10498641  0.06351515  0.05384237       0.007
   0.13998188  0.06351515  0.05384236       0.007
   0.17497735  0.06351515  0.05384235       0.007
  -0.13998190  0.06351516  0.05384243       0.007
  -0.10498643  0.06351516  0.05384243       0.007
  -0.06999095  0.06351516  0.05384242       0.007
  -0.03499548  0.06351516  0.05384241       0.007
  -0.00000002  0.09527273  0.05384241       0.007
   0.03499545  0.09527272  0.05384240       0.007
   0.06999093  0.09527272  0.05384239       0.007
   0.10498640  0.09527272  0.05384238       0.007
   0.13998187  0.09527272  0.05384237       0.007
   0.17497734  0.09527272  0.05384236       0.007
  -0.13998190  0.09527273  0.05384244       0.007
  -0.10498643  0.09527273  0.05384243       0.007
  -0.06999096  0.09527273  0.05384243       0.007
  -0.03499549  0.09527273  0.05384242       0.007
 
 k-points in reciprocal lattice and weights: read from INCAR                         
   0.00000000  0.00000000  0.00000000       0.004
   0.10000000  0.00000000 -0.00000000       0.007
   0.20000000  0.00000000 -0.00000000       0.007
   0.30000000 -0.00000000  0.00000000       0.007
   0.40000000  0.00000000 -0.00000000       0.007
   0.50000000  0.00000000  0.00000000       0.004
   0.00000000  0.14285714 -0.00000000       0.007
   0.10000000  0.14285714 -0.00000000       0.007
   0.20000000  0.14285714 -0.00000000       0.007
   0.30000000  0.14285714 -0.00000000       0.007
   0.40000000  0.14285714  0.00000000       0.007
   0.50000000  0.14285714  0.00000000       0.007
  -0.40000000  0.14285714  0.00000000       0.007
  -0.30000000  0.14285714 -0.00000000       0.007
  -0.20000000  0.14285714  0.00000000       0.007
  -0.10000000  0.14285714 -0.00000000       0.007
   0.00000000  0.28571429 -0.00000000       0.007
   0.10000000  0.28571429 -0.00000000       0.007
   0.20000000  0.28571429 -0.00000000       0.007
   0.30000000  0.28571429  0.00000000       0.007
   0.40000000  0.28571429 -0.00000000       0.007
   0.50000000  0.28571429 -0.00000000       0.007
  -0.40000000  0.28571429  0.00000000       0.007
  -0.30000000  0.28571429  0.00000000       0.007
  -0.20000000  0.28571429 -0.00000000       0.007
  -0.10000000  0.28571429 -0.00000000       0.007
   0.00000000  0.42857143 -0.00000000       0.007
   0.10000000  0.42857143 -0.00000000       0.007
   0.20000000  0.42857143 -0.00000000       0.007
   0.30000000  0.42857143 -0.00000000       0.007
   0.40000000  0.42857143 -0.00000000       0.007
   0.50000000  0.42857143 -0.00000000       0.007
  -0.40000000  0.42857143  0.00000000       0.007
  -0.30000000  0.42857143 -0.00000000       0.007
  -0.20000000  0.42857143  0.00000000       0.007
  -0.10000000  0.42857143 -0.00000000       0.007
   0.00000000 -0.00000000  0.25000000       0.007
   0.10000000 -0.00000000  0.25000000       0.007
   0.20000000 -0.00000000  0.25000000       0.007
   0.30000000 -0.00000000  0.25000000       0.007
   0.40000000  0.00000000  0.25000000       0.007
   0.50000000  0.00000000  0.25000000       0.007
  -0.40000000 -0.00000000  0.25000000       0.007
  -0.30000000 -0.00000000  0.25000000       0.007
  -0.20000000  0.00000000  0.25000000       0.007
  -0.10000000 -0.00000000  0.25000000       0.007
   0.00000000  0.14285714  0.25000000       0.007
   0.10000000  0.14285714  0.25000000       0.007
   0.20000000  0.14285714  0.25000000       0.007
   0.30000000  0.14285714  0.25000000       0.007
   0.40000000  0.14285714  0.25000000       0.007
   0.50000000  0.14285714  0.25000000       0.007
  -0.40000000  0.14285714  0.25000000       0.007
  -0.30000000  0.14285714  0.25000000       0.007
  -0.20000000  0.14285714  0.25000000       0.007
  -0.10000000  0.14285714  0.25000000       0.007
   0.00000000  0.28571429  0.25000000       0.007
   0.10000000  0.28571429  0.25000000       0.007
   0.20000000  0.28571429  0.25000000       0.007
   0.30000000  0.28571429  0.25000000       0.007
   0.40000000  0.28571429  0.25000000       0.007
   0.50000000  0.28571429  0.25000000       0.007
  -0.40000000  0.28571429  0.25000000       0.007
  -0.30000000  0.28571429  0.25000000       0.007
  -0.20000000  0.28571429  0.25000000       0.007
  -0.10000000  0.28571429  0.25000000       0.007
   0.00000000  0.42857143  0.25000000       0.007
   0.10000000  0.42857143  0.25000000       0.007
   0.20000000  0.42857143  0.25000000       0.007
   0.30000000  0.42857143  0.25000000       0.007
   0.40000000  0.42857143  0.25000000       0.007
   0.50000000  0.42857143  0.25000000       0.007
  -0.40000000  0.42857143  0.25000000       0.007
  -0.30000000  0.42857143  0.25000000       0.007
  -0.20000000  0.42857143  0.25000000       0.007
  -0.10000000  0.42857143  0.25000000       0.007
   0.00000000 -0.42857143  0.25000000       0.007
   0.10000000 -0.42857143  0.25000000       0.007
   0.20000000 -0.42857143  0.25000000       0.007
   0.30000000 -0.42857143  0.25000000       0.007
   0.40000000 -0.42857143  0.25000000       0.007
   0.50000000 -0.42857143  0.25000000       0.007
  -0.40000000 -0.42857143  0.25000000       0.007
  -0.30000000 -0.42857143  0.25000000       0.007
  -0.20000000 -0.42857143  0.25000000       0.007
  -0.10000000 -0.42857143  0.25000000       0.007
   0.00000000 -0.28571429  0.25000000       0.007
   0.10000000 -0.28571429  0.25000000       0.007
   0.20000000 -0.28571429  0.25000000       0.007
   0.30000000 -0.28571429  0.25000000       0.007
   0.40000000 -0.28571429  0.25000000       0.007
   0.50000000 -0.28571429  0.25000000       0.007
  -0.40000000 -0.28571429  0.25000000       0.007
  -0.30000000 -0.28571429  0.25000000       0.007
  -0.20000000 -0.28571429  0.25000000       0.007
  -0.10000000 -0.28571429  0.25000000       0.007
  -0.00000000 -0.14285714  0.25000000       0.007
   0.10000000 -0.14285714  0.25000000       0.007
   0.20000000 -0.14285714  0.25000000       0.007
   0.30000000 -0.14285714  0.25000000       0.007
   0.40000000 -0.14285714  0.25000000       0.007
   0.50000000 -0.14285714  0.25000000       0.007
  -0.40000000 -0.14285714  0.25000000       0.007
  -0.30000000 -0.14285714  0.25000000       0.007
  -0.20000000 -0.14285714  0.25000000       0.007
  -0.10000000 -0.14285714  0.25000000       0.007
   0.00000000 -0.00000000  0.50000000       0.004
   0.10000000  0.00000000  0.50000000       0.007
   0.20000000 -0.00000000  0.50000000       0.007
   0.30000000 -0.00000000  0.50000000       0.007
   0.40000000 -0.00000000  0.50000000       0.007
   0.50000000 -0.00000000  0.50000000       0.004
   0.00000000  0.14285714  0.50000000       0.007
   0.10000000  0.14285714  0.50000000       0.007
   0.20000000  0.14285714  0.50000000       0.007
   0.30000000  0.14285714  0.50000000       0.007
   0.40000000  0.14285714  0.50000000       0.007
   0.50000000  0.14285714  0.50000000       0.007
  -0.40000000  0.14285714  0.50000000       0.007
  -0.30000000  0.14285714  0.50000000       0.007
  -0.20000000  0.14285714  0.50000000       0.007
  -0.10000000  0.14285714  0.50000000       0.007
   0.00000000  0.28571429  0.50000000       0.007
   0.10000000  0.28571429  0.50000000       0.007
   0.20000000  0.28571429  0.50000000       0.007
   0.30000000  0.28571429  0.50000000       0.007
   0.40000000  0.28571429  0.50000000       0.007
   0.50000000  0.28571429  0.50000000       0.007
  -0.40000000  0.28571429  0.50000000       0.007
  -0.30000000  0.28571429  0.50000000       0.007
  -0.20000000  0.28571429  0.50000000       0.007
  -0.10000000  0.28571429  0.50000000       0.007
   0.00000000  0.42857143  0.50000000       0.007
   0.10000000  0.42857143  0.50000000       0.007
   0.20000000  0.42857143  0.50000000       0.007
   0.30000000  0.42857143  0.50000000       0.007
   0.40000000  0.42857143  0.50000000       0.007
   0.50000000  0.42857143  0.50000000       0.007
  -0.40000000  0.42857143  0.50000000       0.007
  -0.30000000  0.42857143  0.50000000       0.007
  -0.20000000  0.42857143  0.50000000       0.007
  -0.10000000  0.42857143  0.50000000       0.007
 
 position of ions in fractional coordinates (direct lattice) 
   0.25000216  0.01802869  0.86557889
   0.75000206  0.98196831  0.13442006
   0.75000209  0.51803165  0.63442019
   0.25000240  0.48197163  0.36557933
   0.24999832  0.71178859  0.53752577
   0.74999843  0.21178089  0.96247332
   0.24999857  0.78821134  0.03752547
   0.74999871  0.28821952  0.46247316
   0.24999931  0.19531401  0.21680694
   0.24999910  0.30468577  0.71680711
   0.74999963  0.69531925  0.28319531
   0.74999922  0.80468136  0.78319546
 
 position of ions in cartesian coordinates  (Angst):
   0.71438643  0.08109734  8.03808179
   2.14314078  4.41725187  1.24827260
   2.14314203  2.33029409  5.89145692
   0.71438597  2.16808341  3.39490262
   0.71437476  3.20188347  4.99165984
   2.14313230  0.95266550  8.93787855
   0.71437427  3.54566229  0.34847432
   2.14313190  1.29651574  4.29469429
   0.71437673  0.87859324  2.01334816
   0.71437735  1.37058593  6.65653236
   2.14313416  3.12779938  2.62985417
   2.14313422  3.61974866  7.27303814
 


--------------------------------------------------------------------------------------------------------


 k-point  1 :   0.0000 0.0000 0.0000  plane waves:    3205
 k-point  2 :   0.1000 0.0000-0.0000  plane waves:    3219
 k-point  3 :   0.2000 0.0000-0.0000  plane waves:    3233
 k-point  4 :   0.3000-0.0000 0.0000  plane waves:    3201
 k-point  5 :   0.4000 0.0000-0.0000  plane waves:    3232
 k-point  6 :   0.5000 0.0000 0.0000  plane waves:    3226
 k-point  7 :   0.0000 0.1429-0.0000  plane waves:    3207
 k-point  8 :   0.1000 0.1429-0.0000  plane waves:    3208
 k-point  9 :   0.2000 0.1429-0.0000  plane waves:    3212
 k-point 10 :   0.3000 0.1429-0.0000  plane waves:    3208
 k-point 11 :   0.4000 0.1429 0.0000  plane waves:    3212
 k-point 12 :   0.5000 0.1429 0.0000  plane waves:    3228
 k-point 13 :  -0.4000 0.1429 0.0000  plane waves:    3212
 k-point 14 :  -0.3000 0.1429-0.0000  plane waves:    3208
 k-point 15 :  -0.2000 0.1429 0.0000  plane waves:    3212
 k-point 16 :  -0.1000 0.1429-0.0000  plane waves:    3208
 k-point 17 :   0.0000 0.2857-0.0000  plane waves:    3221
 k-point 18 :   0.1000 0.2857-0.0000  plane waves:    3213
 k-point 19 :   0.2000 0.2857-0.0000  plane waves:    3212
 k-point 20 :   0.3000 0.2857 0.0000  plane waves:    3221
 k-point 21 :   0.4000 0.2857-0.0000  plane waves:    3208
 k-point 22 :   0.5000 0.2857-0.0000  plane waves:    3224
 k-point 23 :  -0.4000 0.2857 0.0000  plane waves:    3208
 k-point 24 :  -0.3000 0.2857 0.0000  plane waves:    3221
 k-point 25 :  -0.2000 0.2857-0.0000  plane waves:    3212
 k-point 26 :  -0.1000 0.2857-0.0000  plane waves:    3213
 k-point 27 :   0.0000 0.4286-0.0000  plane waves:    3224
 k-point 28 :   0.1000 0.4286-0.0000  plane waves:    3222
 k-point 29 :   0.2000 0.4286-0.0000  plane waves:    3216
 k-point 30 :   0.3000 0.4286-0.0000  plane waves:    3202
 k-point 31 :   0.4000 0.4286-0.0000  plane waves:    3205
 k-point 32 :   0.5000 0.4286-0.0000  plane waves:    3170
 k-point 33 :  -0.4000 0.4286 0.0000  plane waves:    3205
 k-point 34 :  -0.3000 0.4286-0.0000  plane waves:    3202
 k-point 35 :  -0.2000 0.4286 0.0000  plane waves:    3216
 k-point 36 :  -0.1000 0.4286-0.0000  plane waves:    3222
 k-point 37 :   0.0000-0.0000 0.2500  plane waves:    3225
 k-point 38 :   0.1000-0.0000 0.2500  plane waves:    3226
 k-point 39 :   0.2000-0.0000 0.2500  plane waves:    3218
 k-point 40 :   0.3000-0.0000 0.2500  plane waves:    3195
 k-point 41 :   0.4000 0.0000 0.2500  plane waves:    3219
 k-point 42 :   0.5000 0.0000 0.2500  plane waves:    3234
 k-point 43 :  -0.4000-0.0000 0.2500  plane waves:    3219
 k-point 44 :  -0.3000-0.0000 0.2500  plane waves:    3195
 k-point 45 :  -0.2000 0.0000 0.2500  plane waves:    3218
 k-point 46 :  -0.1000-0.0000 0.2500  plane waves:    3226
 k-point 47 :   0.0000 0.1429 0.2500  plane waves:    3222
 k-point 48 :   0.1000 0.1429 0.2500  plane waves:    3222
 k-point 49 :   0.2000 0.1429 0.2500  plane waves:    3211
 k-point 50 :   0.3000 0.1429 0.2500  plane waves:    3212
 k-point 51 :   0.4000 0.1429 0.2500  plane waves:    3216
 k-point 52 :   0.5000 0.1429 0.2500  plane waves:    3224
 k-point 53 :  -0.4000 0.1429 0.2500  plane waves:    3216
 k-point 54 :  -0.3000 0.1429 0.2500  plane waves:    3212
 k-point 55 :  -0.2000 0.1429 0.2500  plane waves:    3211
 k-point 56 :  -0.1000 0.1429 0.2500  plane waves:    3222
 k-point 57 :   0.0000 0.2857 0.2500  plane waves:    3232
 k-point 58 :   0.1000 0.2857 0.2500  plane waves:    3217
 k-point 59 :   0.2000 0.2857 0.2500  plane waves:    3211
 k-point 60 :   0.3000 0.2857 0.2500  plane waves:    3205
 k-point 61 :   0.4000 0.2857 0.2500  plane waves:    3209
 k-point 62 :   0.5000 0.2857 0.2500  plane waves:    3206
 k-point 63 :  -0.4000 0.2857 0.2500  plane waves:    3209
 k-point 64 :  -0.3000 0.2857 0.2500  plane waves:    3205
 k-point 65 :  -0.2000 0.2857 0.2500  plane waves:    3211
 k-point 66 :  -0.1000 0.2857 0.2500  plane waves:    3217
 k-point 67 :   0.0000 0.4286 0.2500  plane waves:    3222
 k-point 68 :   0.1000 0.4286 0.2500  plane waves:    3218
 k-point 69 :   0.2000 0.4286 0.2500  plane waves:    3222
 k-point 70 :   0.3000 0.4286 0.2500  plane waves:    3202
 k-point 71 :   0.4000 0.4286 0.2500  plane waves:    3192
 k-point 72 :   0.5000 0.4286 0.2500  plane waves:    3192
 k-point 73 :  -0.4000 0.4286 0.2500  plane waves:    3192
 k-point 74 :  -0.3000 0.4286 0.2500  plane waves:    3202
 k-point 75 :  -0.2000 0.4286 0.2500  plane waves:    3222
 k-point 76 :  -0.1000 0.4286 0.2500  plane waves:    3218
 k-point 77 :   0.0000-0.4286 0.2500  plane waves:    3222
 k-point 78 :   0.1000-0.4286 0.2500  plane waves:    3218
 k-point 79 :   0.2000-0.4286 0.2500  plane waves:    3222
 k-point 80 :   0.3000-0.4286 0.2500  plane waves:    3202
 k-point 81 :   0.4000-0.4286 0.2500  plane waves:    3192
 k-point 82 :   0.5000-0.4286 0.2500  plane waves:    3192
 k-point 83 :  -0.4000-0.4286 0.2500  plane waves:    3192
 k-point 84 :  -0.3000-0.4286 0.2500  plane waves:    3202
 k-point 85 :  -0.2000-0.4286 0.2500  plane waves:    3222
 k-point 86 :  -0.1000-0.4286 0.2500  plane waves:    3218
 k-point 87 :   0.0000-0.2857 0.2500  plane waves:    3232
 k-point 88 :   0.1000-0.2857 0.2500  plane waves:    3217
 k-point 89 :   0.2000-0.2857 0.2500  plane waves:    3211
 k-point 90 :   0.3000-0.2857 0.2500  plane waves:    3205
 k-point 91 :   0.4000-0.2857 0.2500  plane waves:    3209
 k-point 92 :   0.5000-0.2857 0.2500  plane waves:    3206
 k-point 93 :  -0.4000-0.2857 0.2500  plane waves:    3209
 k-point 94 :  -0.3000-0.2857 0.2500  plane waves:    3205
 k-point 95 :  -0.2000-0.2857 0.2500  plane waves:    3211
 k-point 96 :  -0.1000-0.2857 0.2500  plane waves:    3217
 k-point 97 :  -0.0000-0.1429 0.2500  plane waves:    3222
 k-point 98 :   0.1000-0.1429 0.2500  plane waves:    3222
 k-point 99 :   0.2000-0.1429 0.2500  plane waves:    3211
 k-point ** :   0.3000-0.1429 0.2500  plane waves:    3212
 k-point ** :   0.4000-0.1429 0.2500  plane waves:    3216
 k-point ** :   0.5000-0.1429 0.2500  plane waves:    3224
 k-point ** :  -0.4000-0.1429 0.2500  plane waves:    3216
 k-point ** :  -0.3000-0.1429 0.2500  plane waves:    3212
 k-point ** :  -0.2000-0.1429 0.2500  plane waves:    3211
 k-point ** :  -0.1000-0.1429 0.2500  plane waves:    3222
 k-point ** :   0.0000-0.0000 0.5000  plane waves:    3230
 k-point ** :   0.1000 0.0000 0.5000  plane waves:    3232
 k-point ** :   0.2000-0.0000 0.5000  plane waves:    3224
 k-point ** :   0.3000-0.0000 0.5000  plane waves:    3206
 k-point ** :   0.4000-0.0000 0.5000  plane waves:    3216
 k-point ** :   0.5000-0.0000 0.5000  plane waves:    3220
 k-point ** :   0.0000 0.1429 0.5000  plane waves:    3224
 k-point ** :   0.1000 0.1429 0.5000  plane waves:    3230
 k-point ** :   0.2000 0.1429 0.5000  plane waves:    3214
 k-point ** :   0.3000 0.1429 0.5000  plane waves:    3202
 k-point ** :   0.4000 0.1429 0.5000  plane waves:    3224
 k-point ** :   0.5000 0.1429 0.5000  plane waves:    3228
 k-point ** :  -0.4000 0.1429 0.5000  plane waves:    3224
 k-point ** :  -0.3000 0.1429 0.5000  plane waves:    3202
 k-point ** :  -0.2000 0.1429 0.5000  plane waves:    3214
 k-point ** :  -0.1000 0.1429 0.5000  plane waves:    3230
 k-point ** :   0.0000 0.2857 0.5000  plane waves:    3218
 k-point ** :   0.1000 0.2857 0.5000  plane waves:    3224
 k-point ** :   0.2000 0.2857 0.5000  plane waves:    3212
 k-point ** :   0.3000 0.2857 0.5000  plane waves:    3204
 k-point ** :   0.4000 0.2857 0.5000  plane waves:    3196
 k-point ** :   0.5000 0.2857 0.5000  plane waves:    3200
 k-point ** :  -0.4000 0.2857 0.5000  plane waves:    3196
 k-point ** :  -0.3000 0.2857 0.5000  plane waves:    3204
 k-point ** :  -0.2000 0.2857 0.5000  plane waves:    3212
 k-point ** :  -0.1000 0.2857 0.5000  plane waves:    3224
 k-point ** :   0.0000 0.4286 0.5000  plane waves:    3214
 k-point ** :   0.1000 0.4286 0.5000  plane waves:    3220
 k-point ** :   0.2000 0.4286 0.5000  plane waves:    3218
 k-point ** :   0.3000 0.4286 0.5000  plane waves:    3206
 k-point ** :   0.4000 0.4286 0.5000  plane waves:    3202
 k-point ** :   0.5000 0.4286 0.5000  plane waves:    3196
 k-point ** :  -0.4000 0.4286 0.5000  plane waves:    3202
 k-point ** :  -0.3000 0.4286 0.5000  plane waves:    3206
 k-point ** :  -0.2000 0.4286 0.5000  plane waves:    3218
 k-point ** :  -0.1000 0.4286 0.5000  plane waves:    3220

 maximum and minimum number of plane-waves per node :       819      786

 maximum number of plane-waves:      3234
 maximum index in each direction: 
   IXMAX=    5   IYMAX=    8   IZMAX=   17
   IXMIN=   -5   IYMIN=   -8   IZMIN=  -17


 parallel 3D FFT for wavefunctions:
    minimum data exchange during FFTs selected (reduces bandwidth)
 parallel 3D FFT for charge:
    minimum data exchange during FFTs selected (reduces bandwidth)


 total amount of memory used by VASP MPI-rank0   245433. kBytes
=======================================================================

   base      :      30000. kBytes
   nonl-proj :      33692. kBytes
   fftplans  :       1491. kBytes
   grid      :       5125. kBytes
   one-center:         93. kBytes
   wavefun   :     175032. kBytes
 
     INWAV:  cpu time    3.8266: real time    3.8372
 Broyden mixing: mesh for mixing (old mesh)
   NGX = 11   NGY = 17   NGZ = 35
  (NGX  = 48   NGY  = 72   NGZ  =140)
  gives a total of   6545 points

 charge density for first step will be calculated from the start-wavefunctions


--------------------------------------------------------------------------------------------------------


 Maximum index for augmentation-charges          961 (set IRDMAX)


--------------------------------------------------------------------------------------------------------


 initial charge from wavefunction
 First call to EWALD:  gamma=   0.360
 Maximum number of real-space cells 4x 3x 2
 Maximum number of reciprocal cells 2x 3x 5

    FEWALD:  cpu time    0.0013: real time    0.0020


--------------------------------------- Iteration      1(   1)  ---------------------------------------


    POTLOK:  cpu time    0.0908: real time    0.0923
    SETDIJ:  cpu time    1.1171: real time    1.1194
    TRIAL :  cpu time   27.6035: real time   27.7011
    CORREC:  cpu time   14.3618: real time   14.4142
    CHARGE:  cpu time    5.1857: real time    5.2043
    --------------------------------------------
      LOOP:  cpu time   48.4034: real time   48.5874

 eigenvalue-minimisations  :     0
 total energy-change (2. order) :-0.1306825E+03  (-0.1355684E-04)
 number of electron     100.0000018 magnetization      -0.0000000
 augmentation part       33.7197160 magnetization      -0.0000002

 Free energy of the ion-electron system (eV)
  ---------------------------------------------------
  alpha Z        PSCENC =       466.04524529
  Ewald energy   TEWEN  =     -7619.08416833
  -Hartree energ DENC   =     -3506.80384425
  -exchange      EXHF   =         0.00000000
  -V(xc)+E(xc)   XCENC  =       593.00579183
  PAW double counting   =     13035.12631566   -13307.39103374
  entropy T*S    EENTRO =        -0.00000000
  eigenvalues    EBANDS =     -1351.48720206
  atomic energy  EATOM  =     11559.90638050
  ---------------------------------------------------
  free energy    TOTEN  =      -130.68251511 eV

  energy without entropy =     -130.68251511  energy(sigma->0) =     -130.68251511


--------------------------------------------------------------------------------------------------------




--------------------------------------- Iteration      1(   2)  ---------------------------------------


    POTLOK:  cpu time    0.0885: real time    0.0896
    SETDIJ:  cpu time    1.1039: real time    1.1065
    TRIAL :  cpu time   28.1328: real time   28.2645
    CORREC:  cpu time   20.6763: real time   22.6842
    CHARGE:  cpu time    7.0979: real time    9.2026
    --------------------------------------------
      LOOP:  cpu time   57.1006: real time   61.3487

 eigenvalue-minimisations  :     0
 total energy-change (2. order) :-0.1030876E-04  (-0.8828152E-06)
 number of electron     100.0000018 magnetization      -0.0000000
 augmentation part       33.7195804 magnetization      -0.0000002

 Free energy of the ion-electron system (eV)
  ---------------------------------------------------
  alpha Z        PSCENC =       466.04524529
  Ewald energy   TEWEN  =     -7619.08416833
  -Hartree energ DENC   =     -3506.78609389
  -exchange      EXHF   =         0.00000000
  -V(xc)+E(xc)   XCENC  =       593.00272565
  PAW double counting   =     13035.35489337   -13307.62451145
  entropy T*S    EENTRO =        -0.00000000
  eigenvalues    EBANDS =     -1351.49699657
  atomic energy  EATOM  =     11559.90638050
  ---------------------------------------------------
  free energy    TOTEN  =      -130.68252542 eV

  energy without entropy =     -130.68252542  energy(sigma->0) =     -130.68252542


--------------------------------------------------------------------------------------------------------




--------------------------------------- Iteration      1(   3)  ---------------------------------------


    POTLOK:  cpu time    0.1217: real time    0.1463
    SETDIJ:  cpu time    1.1341: real time    1.1464
    TRIAL :  cpu time   48.1661: real time   48.6418
    CORREC:  cpu time   17.3381: real time   21.8931
    EDDIAG:  cpu time    9.6404: real time   13.3403
    CHARGE:  cpu time    6.2526: real time    9.7553
    --------------------------------------------
      LOOP:  cpu time   82.6537: real time   94.9242

 eigenvalue-minimisations  :     0
 total energy-change (2. order) :-0.5401162E-06  (-0.5159428E-06)
 number of electron     100.0000018 magnetization      -0.0000000
 augmentation part       33.7195099 magnetization      -0.0000003

 Free energy of the ion-electron system (eV)
  ---------------------------------------------------
  alpha Z        PSCENC =       466.04524529
  Ewald energy   TEWEN  =     -7619.08416833
  -Hartree energ DENC   =     -3506.77954552
  -exchange      EXHF   =         0.00000000
  -V(xc)+E(xc)   XCENC  =       593.00316240
  PAW double counting   =     13035.43083984   -13307.69688774
  entropy T*S    EENTRO =        -0.00000000
  eigenvalues    EBANDS =     -1351.50755240
  atomic energy  EATOM  =     11559.90638050
  ---------------------------------------------------
  free energy    TOTEN  =      -130.68252596 eV

  energy without entropy =     -130.68252596  energy(sigma->0) =     -130.68252596


--------------------------------------------------------------------------------------------------------


  average scaling for gradient   0.9193


 average (electrostatic) potential at core
  the test charge radii are     0.9577  0.7215
  (the norm of the test charge is              1.0000)
       1 -77.0274       2 -77.0274       3 -77.0274       4 -77.0274       5 -74.6725
       6 -74.6725       7 -74.6725       8 -74.6725       9 -74.4625      10 -74.4625
      11 -74.4625      12 -74.4625
 
 
 
 E-fermi :   3.6045     XC(G=0): -12.2610     alpha+bet :-11.9234


 spin component 1

 k-point     1 :       0.0000    0.0000    0.0000
  band No.  band energies     occupation 
      1     -48.7372      1.00000
      2     -48.7333      1.00000
      3     -48.7317      1.00000
      4     -48.7193      1.00000
      5     -48.6956      1.00000
      6     -48.6816      1.00000
      7     -44.7648      1.00000
      8     -44.7596      1.00000
      9     -44.7344      1.00000
     10     -44.7171      1.00000
     11     -44.5952      1.00000
     12     -44.5754      1.00000
     13     -16.7432      1.00000
     14     -16.1206      1.00000
     15     -15.8134      1.00000
     16     -15.0299      1.00000
     17     -14.7334      1.00000
     18     -14.6555      1.00000
     19     -14.5747      1.00000
     20     -14.4766      1.00000
     21      -3.4071      1.00000
     22      -2.8636      1.00000
     23      -2.7210      1.00000
     24      -1.9749      1.00000
     25      -1.8982      1.00000
     26      -1.7336      1.00000
     27      -1.6370      1.00000
     28      -1.5898      1.00000
     29      -1.1364      1.00000
     30      -1.1134      1.00000
     31      -0.9253      1.00000
     32      -0.4275      1.00000
     33      -0.2629      1.00000
     34       0.2528      1.00000
     35       0.2660      1.00000
     36       0.5352      1.00000
     37       0.6652      1.00000
     38       0.8758      1.00000
     39       1.2590      1.00000
     40       1.4577      1.00000
     41       1.7453      1.00000
     42       2.0420      1.00000
     43       2.1245      1.00000
     44       2.3677      1.00000
     45       2.5209      1.00000
     46       2.5387      1.00000
     47       2.5715      1.00000
     48       3.0535      1.00000
     49       3.3160      1.00000
     50       3.4546      1.00000
     51       5.4205      0.00000
     52       5.4929      0.00000
     53       5.7193      0.00000
     54       5.8758      0.00000
     55       5.9250      0.00000
     56       6.1185      0.00000
     57       7.0590      0.00000
     58       7.0969      0.00000
     59       7.1733      0.00000
     60       7.3248      0.00000

 k-point     2 :       0.1000    0.0000   -0.0000
  band No.  band energies     occupation 
      1     -48.7477      1.00000
      2     -48.7440      1.00000
      3     -48.7301      1.00000
      4     -48.7182      1.00000
      5     -48.6940      1.00000
      6     -48.6807      1.00000
      7     -44.7780      1.00000
      8     -44.7731      1.00000
      9     -44.7322      1.00000
     10     -44.7156      1.00000
     11     -44.5931      1.00000
     12     -44.5743      1.00000
     13     -16.6462      1.00000
     14     -16.0480      1.00000
     15     -15.7403      1.00000
     16     -14.9987      1.00000
     17     -14.7436      1.00000
     18     -14.6687      1.00000
     19     -14.6005      1.00000
     20     -14.4947      1.00000
     21      -3.2693      1.00000
     22      -2.7537      1.00000
     23      -2.6187      1.00000
     24      -1.9117      1.00000
     25      -1.8503      1.00000
     26      -1.8434      1.00000
     27      -1.7614      1.00000
     28      -1.5660      1.00000
     29      -1.2436      1.00000
     30      -1.0666      1.00000
     31      -0.8055      1.00000
     32      -0.4288      1.00000
     33      -0.1995      1.00000
     34       0.0810      1.00000
     35       0.2988      1.00000
     36       0.4076      1.00000
     37       0.4454      1.00000
     38       0.8268      1.00000
     39       1.2834      1.00000
     40       1.3530      1.00000
     41       1.6844      1.00000
     42       1.7122      1.00000
     43       1.9218      1.00000
     44       2.3622      1.00000
     45       2.4290      1.00000
     46       2.6371      1.00000
     47       2.7104      1.00000
     48       3.0217      1.00000
     49       3.3080      1.00000
     50       3.4429      1.00000
     51       5.4993      0.00000
     52       5.5831      0.00000
     53       5.7736      0.00000
     54       5.9881      0.00000
     55       6.0255      0.00000
     56       6.1280      0.00000
     57       6.8068      0.00000
     58       6.8460      0.00000
     59       7.1951      0.00000
     60       7.2605      0.00000

 k-point     3 :       0.2000    0.0000   -0.0000
  band No.  band energies     occupation 
      1     -48.7748      1.00000
      2     -48.7716      1.00000
      3     -48.7260      1.00000
      4     -48.7159      1.00000
      5     -48.6895      1.00000
      6     -48.6783      1.00000
      7     -44.8123      1.00000
      8     -44.8081      1.00000
      9     -44.7263      1.00000
     10     -44.7121      1.00000
     11     -44.5875      1.00000
     12     -44.5715      1.00000
     13     -16.3740      1.00000
     14     -15.8503      1.00000
     15     -15.5428      1.00000
     16     -14.9312      1.00000
     17     -14.7698      1.00000
     18     -14.7064      1.00000
     19     -14.6718      1.00000
     20     -14.5392      1.00000
     21      -2.8928      1.00000
     22      -2.4829      1.00000
     23      -2.3572      1.00000
     24      -2.0753      1.00000
     25      -1.8998      1.00000
     26      -1.8185      1.00000
     27      -1.6079      1.00000
     28      -1.6005      1.00000
     29      -1.3862      1.00000
     30      -0.8929      1.00000
     31      -0.8215      1.00000
     32      -0.6672      1.00000
     33      -0.4374      1.00000
     34      -0.2856      1.00000
     35       0.0473      1.00000
     36       0.3832      1.00000
     37       0.6741      1.00000
     38       0.7511      1.00000
     39       0.9121      1.00000
     40       1.1990      1.00000
     41       1.2090      1.00000
     42       1.5211      1.00000
     43       1.7945      1.00000
     44       2.2878      1.00000
     45       2.3328      1.00000
     46       2.7188      1.00000
     47       2.7793      1.00000
     48       2.7827      1.00000
     49       3.2454      1.00000
     50       3.4289      1.00000
     51       5.6010      0.00000
     52       5.6794      0.00000
     53       5.8677      0.00000
     54       5.9502      0.00000
     55       6.1661      0.00000
     56       6.2049      0.00000
     57       6.5664      0.00000
     58       6.5927      0.00000
     59       7.0869      0.00000
     60       7.1361      0.00000

 k-point     4 :       0.3000   -0.0000    0.0000
  band No.  band energies     occupation 
      1     -48.8081      1.00000
      2     -48.8057      1.00000
      3     -48.7208      1.00000
      4     -48.7135      1.00000
      5     -48.6836      1.00000
      6     -48.6756      1.00000
      7     -44.8543      1.00000
      8     -44.8513      1.00000
      9     -44.7186      1.00000
     10     -44.7083      1.00000
     11     -44.5801      1.00000
     12     -44.5684      1.00000
     13     -15.9816      1.00000
     14     -15.5838      1.00000
     15     -15.2828      1.00000
     16     -14.8962      1.00000
     17     -14.8160      1.00000
     18     -14.7649      1.00000
     19     -14.7557      1.00000
     20     -14.5867      1.00000
     21      -2.4869      1.00000
     22      -2.4387      1.00000
     23      -2.1141      1.00000
     24      -2.0390      1.00000
     25      -2.0333      1.00000
     26      -1.8371      1.00000
     27      -1.6462      1.00000
     28      -1.5433      1.00000
     29      -1.2287      1.00000
     30      -1.1428      1.00000
     31      -1.0539      1.00000
     32      -0.6238      1.00000
     33      -0.4676      1.00000
     34      -0.4062      1.00000
     35      -0.0117      1.00000
     36       0.3182      1.00000
     37       0.4747      1.00000
     38       0.6259      1.00000
     39       0.8888      1.00000
     40       1.0029      1.00000
     41       1.0382      1.00000
     42       1.4733      1.00000
     43       1.5072      1.00000
     44       2.1773      1.00000
     45       2.2027      1.00000
     46       2.3432      1.00000
     47       2.5279      1.00000
     48       2.6310      1.00000
     49       3.2187      1.00000
     50       3.4350      1.00000
     51       5.3600      0.00000
     52       5.4424      0.00000
     53       6.0007      0.00000
     54       6.0135      0.00000
     55       6.1993      0.00000
     56       6.2240      0.00000
     57       6.5350      0.00000
     58       6.7147      0.00000
     59       6.9944      0.00000
     60       7.0560      0.00000

 k-point     5 :       0.4000    0.0000   -0.0000
  band No.  band energies     occupation 
      1     -48.8346      1.00000
      2     -48.8334      1.00000
      3     -48.7160      1.00000
      4     -48.7123      1.00000
      5     -48.6781      1.00000
      6     -48.6739      1.00000
      7     -44.8878      1.00000
      8     -44.8862      1.00000
      9     -44.7117      1.00000
     10     -44.7062      1.00000
     11     -44.5730      1.00000
     12     -44.5668      1.00000
     13     -15.5555      1.00000
     14     -15.3210      1.00000
     15     -15.0581      1.00000
     16     -14.9709      1.00000
     17     -14.9233      1.00000
     18     -14.8291      1.00000
     19     -14.7661      1.00000
     20     -14.6366      1.00000
     21      -2.8147      1.00000
     22      -2.6530      1.00000
     23      -2.1137      1.00000
     24      -1.9478      1.00000
     25      -1.8826      1.00000
     26      -1.8341      1.00000
     27      -1.5016      1.00000
     28      -1.3460      1.00000
     29      -1.2917      1.00000
     30      -1.0617      1.00000
     31      -0.8986      1.00000
     32      -0.5962      1.00000
     33      -0.5023      1.00000
     34      -0.1479      1.00000
     35      -0.0438      1.00000
     36       0.3466      1.00000
     37       0.4880      1.00000
     38       0.5255      1.00000
     39       0.7337      1.00000
     40       0.9936      1.00000
     41       1.0970      1.00000
     42       1.1325      1.00000
     43       1.4743      1.00000
     44       1.8564      1.00000
     45       1.9060      1.00000
     46       2.0160      1.00000
     47       2.2025      1.00000
     48       2.2176      1.00000
     49       3.3332      1.00000
     50       3.4465      1.00000
     51       5.1385      0.00000
     52       5.2414      0.00000
     53       5.9842      0.00000
     54       6.0825      0.00000
     55       6.1246      0.00000
     56       6.3490      0.00000
     57       6.5522      0.00000
     58       6.6799      0.00000
     59       7.0888      0.00000
     60       7.1172      0.00000

 k-point     6 :       0.5000    0.0000    0.0000
  band No.  band energies     occupation 
      1     -48.8444      1.00000
      2     -48.8444      1.00000
      3     -48.7130      1.00000
      4     -48.7130      1.00000
      5     -48.6746      1.00000
      6     -48.6746      1.00000
      7     -44.9001      1.00000
      8     -44.9001      1.00000
      9     -44.7072      1.00000
     10     -44.7072      1.00000
     11     -44.5683      1.00000
     12     -44.5682      1.00000
     13     -15.1950      1.00000
     14     -15.1949      1.00000
     15     -15.1119      1.00000
     16     -15.1118      1.00000
     17     -14.8954      1.00000
     18     -14.8953      1.00000
     19     -14.7082      1.00000
     20     -14.7082      1.00000
     21      -2.9186      1.00000
     22      -2.9186      1.00000
     23      -2.0611      1.00000
     24      -2.0611      1.00000
     25      -1.7940      1.00000
     26      -1.7940      1.00000
     27      -1.3423      1.00000
     28      -1.3423      1.00000
     29      -1.1069      1.00000
     30      -1.1069      1.00000
     31      -0.7465      1.00000
     32      -0.7465      1.00000
     33      -0.1918      1.00000
     34      -0.1918      1.00000
     35       0.1475      1.00000
     36       0.1475      1.00000
     37       0.4610      1.00000
     38       0.4610      1.00000
     39       0.9108      1.00000
     40       0.9109      1.00000
     41       1.2565      1.00000
     42       1.2565      1.00000
     43       1.4151      1.00000
     44       1.4152      1.00000
     45       1.7310      1.00000
     46       1.7310      1.00000
     47       2.0634      1.00000
     48       2.0634      1.00000
     49       3.4233      1.00000
     50       3.4233      1.00000
     51       5.1261      0.00000
     52       5.1261      0.00000
     53       6.0212      0.00000
     54       6.0212      0.00000
     55       6.2022      0.00000
     56       6.2023      0.00000
     57       6.6201      0.00000
     58       6.6202      0.00000
     59       7.2125      0.00000
     60       7.2125      0.00000

 k-point     7 :       0.0000    0.1429   -0.0000
  band No.  band energies     occupation 
      1     -48.7370      1.00000
      2     -48.7335      1.00000
      3     -48.7313      1.00000
      4     -48.7203      1.00000
      5     -48.6946      1.00000
      6     -48.6822      1.00000
      7     -44.7645      1.00000
      8     -44.7599      1.00000
      9     -44.7337      1.00000
     10     -44.7181      1.00000
     11     -44.5941      1.00000
     12     -44.5763      1.00000
     13     -16.6940      1.00000
     14     -16.1214      1.00000
     15     -15.7724      1.00000
     16     -15.0586      1.00000
     17     -14.7365      1.00000
     18     -14.6812      1.00000
     19     -14.5980      1.00000
     20     -14.5172      1.00000
     21      -3.3877      1.00000
     22      -2.8936      1.00000
     23      -2.5922      1.00000
     24      -2.0297      1.00000
     25      -1.9720      1.00000
     26      -1.7296      1.00000
     27      -1.6477      1.00000
     28      -1.5672      1.00000
     29      -1.1040      1.00000
     30      -1.0109      1.00000
     31      -0.9439      1.00000
     32      -0.4528      1.00000
     33      -0.2289      1.00000
     34       0.2576      1.00000
     35       0.3671      1.00000
     36       0.4652      1.00000
     37       0.6828      1.00000
     38       1.0129      1.00000
     39       1.2979      1.00000
     40       1.4285      1.00000
     41       1.6945      1.00000
     42       2.0594      1.00000
     43       2.0815      1.00000
     44       2.3199      1.00000
     45       2.4863      1.00000
     46       2.5298      1.00000
     47       2.5414      1.00000
     48       2.9027      1.00000
     49       3.2256      1.00000
     50       3.4582      1.00000
     51       5.4493      0.00000
     52       5.4997      0.00000
     53       5.7296      0.00000
     54       5.8445      0.00000
     55       5.9119      0.00000
     56       6.2137      0.00000
     57       7.0497      0.00000
     58       7.0879      0.00000
     59       7.2097      0.00000
     60       7.2998      0.00000

 k-point     8 :       0.1000    0.1429   -0.0000
  band No.  band energies     occupation 
      1     -48.7475      1.00000
      2     -48.7442      1.00000
      3     -48.7297      1.00000
      4     -48.7192      1.00000
      5     -48.6930      1.00000
      6     -48.6812      1.00000
      7     -44.7778      1.00000
      8     -44.7733      1.00000
      9     -44.7315      1.00000
     10     -44.7166      1.00000
     11     -44.5921      1.00000
     12     -44.5751      1.00000
     13     -16.5984      1.00000
     14     -16.0480      1.00000
     15     -15.7009      1.00000
     16     -15.0241      1.00000
     17     -14.7471      1.00000
     18     -14.6947      1.00000
     19     -14.6217      1.00000
     20     -14.5339      1.00000
     21      -3.2520      1.00000
     22      -2.7856      1.00000
     23      -2.5082      1.00000
     24      -1.9810      1.00000
     25      -1.9305      1.00000
     26      -1.8526      1.00000
     27      -1.7495      1.00000
     28      -1.5396      1.00000
     29      -1.2204      1.00000
     30      -1.0630      1.00000
     31      -0.7463      1.00000
     32      -0.3801      1.00000
     33      -0.1182      1.00000
     34       0.0351      1.00000
     35       0.2133      1.00000
     36       0.5239      1.00000
     37       0.5335      1.00000
     38       0.8450      1.00000
     39       1.2598      1.00000
     40       1.3937      1.00000
     41       1.6700      1.00000
     42       1.6906      1.00000
     43       1.8851      1.00000
     44       2.3482      1.00000
     45       2.3718      1.00000
     46       2.6112      1.00000
     47       2.6792      1.00000
     48       2.9079      1.00000
     49       3.2522      1.00000
     50       3.4419      1.00000
     51       5.5136      0.00000
[...]
     38       0.5599      1.00000
     39       0.9340      1.00000
     40       0.9933      1.00000
     41       1.6975      1.00000
     42       1.7006      1.00000
     43       1.9150      1.00000
     44       1.9602      1.00000
     45       1.9780      1.00000
     46       2.0973      1.00000
     47       2.6648      1.00000
     48       2.6832      1.00000
     49       3.0734      1.00000
     50       3.1602      1.00000
     51       5.6213      0.00000
     52       5.6244      0.00000
     53       5.8538      0.00000
     54       5.9244      0.00000
     55       6.2559      0.00000
     56       6.2935      0.00000
     57       6.6187      0.00000
     58       6.7282      0.00000
     59       6.7913      0.00000
     60       6.9553      0.00000

 k-point   141 :      -0.2000    0.4286    0.5000
  band No.  band energies     occupation 
      1     -48.7735      1.00000
      2     -48.7728      1.00000
      3     -48.7231      1.00000
      4     -48.7209      1.00000
      5     -48.6843      1.00000
      6     -48.6819      1.00000
      7     -44.8106      1.00000
      8     -44.8097      1.00000
      9     -44.7213      1.00000
     10     -44.7182      1.00000
     11     -44.5809      1.00000
     12     -44.5774      1.00000
     13     -16.0071      1.00000
     14     -15.9865      1.00000
     15     -15.1979      1.00000
     16     -15.1911      1.00000
     17     -14.8339      1.00000
     18     -14.8308      1.00000
     19     -14.7291      1.00000
     20     -14.7020      1.00000
     21      -2.7679      1.00000
     22      -2.7398      1.00000
     23      -2.2238      1.00000
     24      -2.1775      1.00000
     25      -2.0851      1.00000
     26      -1.9785      1.00000
     27      -1.8509      1.00000
     28      -1.8014      1.00000
     29      -0.9053      1.00000
     30      -0.8068      1.00000
     31      -0.4659      1.00000
     32      -0.4652      1.00000
     33      -0.1285      1.00000
     34       0.0435      1.00000
     35       0.1340      1.00000
     36       0.1917      1.00000
     37       0.5746      1.00000
     38       0.7908      1.00000
     39       0.9851      1.00000
     40       1.0403      1.00000
     41       1.4770      1.00000
     42       1.7041      1.00000
     43       1.9372      1.00000
     44       1.9618      1.00000
     45       2.1861      1.00000
     46       2.2713      1.00000
     47       2.7632      1.00000
     48       2.8141      1.00000
     49       3.0578      1.00000
     50       3.2082      1.00000
     51       5.7161      0.00000
     52       5.7663      0.00000
     53       5.9215      0.00000
     54       6.0230      0.00000
     55       6.1804      0.00000
     56       6.2905      0.00000
     57       6.5361      0.00000
     58       6.6354      0.00000
     59       6.8206      0.00000
     60       7.0115      0.00000

 k-point   142 :      -0.1000    0.4286    0.5000
  band No.  band energies     occupation 
      1     -48.7462      1.00000
      2     -48.7454      1.00000
      3     -48.7268      1.00000
      4     -48.7243      1.00000
      5     -48.6876      1.00000
      6     -48.6848      1.00000
      7     -44.7760      1.00000
      8     -44.7749      1.00000
      9     -44.7264      1.00000
     10     -44.7228      1.00000
     11     -44.5853      1.00000
     12     -44.5812      1.00000
     13     -16.2380      1.00000
     14     -16.2169      1.00000
     15     -15.3397      1.00000
     16     -15.3387      1.00000
     17     -14.7926      1.00000
     18     -14.7886      1.00000
     19     -14.6947      1.00000
     20     -14.6731      1.00000
     21      -3.0779      1.00000
     22      -3.0338      1.00000
     23      -2.2722      1.00000
     24      -2.2554      1.00000
     25      -1.8824      1.00000
     26      -1.8448      1.00000
     27      -1.6582      1.00000
     28      -1.5604      1.00000
     29      -1.0715      1.00000
     30      -1.0243      1.00000
     31      -0.3510      1.00000
     32      -0.1653      1.00000
     33       0.0586      1.00000
     34       0.0718      1.00000
     35       0.2914      1.00000
     36       0.3776      1.00000
     37       0.6203      1.00000
     38       0.9005      1.00000
     39       1.1533      1.00000
     40       1.2096      1.00000
     41       1.6026      1.00000
     42       1.6117      1.00000
     43       1.9977      1.00000
     44       2.0561      1.00000
     45       2.2990      1.00000
     46       2.4365      1.00000
     47       2.6994      1.00000
     48       2.7043      1.00000
     49       3.1096      1.00000
     50       3.2975      1.00000
     51       5.6521      0.00000
     52       5.6994      0.00000
     53       5.8407      0.00000
     54       5.8484      0.00000
     55       6.0110      0.00000
     56       6.3091      0.00000
     57       6.7601      0.00000
     58       6.8357      0.00000
     59       6.9469      0.00000
     60       7.1039      0.00000


--------------------------------------------------------------------------------------------------------


 soft charge-density along one line, spin component           1
         0         1         2         3         4         5         6         7         8         9
 total charge-density along one line
 
 soft charge-density along one line, spin component           2
         0         1         2         3         4         5         6         7         8         9
 total charge-density along one line
 
 pseudopotential strength for first ion, spin component:           1
-44.664  -0.015  -0.000   8.838   0.007  -0.000  -0.000  -0.020
 -0.015 -44.738   0.000   0.007   8.868   0.000  -0.000  -0.002
 -0.000   0.000 -44.807  -0.000   0.000   8.900  -0.000  -0.000
  8.838   0.007  -0.000   5.224  -0.003   0.000  -0.000   0.006
  0.007   8.868   0.000  -0.003   5.222  -0.000  -0.000   0.003
 -0.000   0.000   8.900   0.000  -0.000   5.216   0.000  -0.000
 -0.000  -0.000  -0.000  -0.000  -0.000   0.000  -3.799  -0.000
 -0.020  -0.002  -0.000   0.006   0.003  -0.000  -0.000  -3.862
 -0.004  -0.013   0.000   0.003  -0.006   0.000   0.000   0.309
 -0.000  -0.000  -0.011  -0.000  -0.000  -0.003  -0.481  -0.000
 -0.006   0.004  -0.000   0.002  -0.004  -0.000   0.000  -0.289
 -0.000  -0.000  -0.000  -0.000  -0.000   0.000  -4.274  -0.000
 -0.020  -0.002  -0.000   0.005   0.003  -0.000  -0.000  -4.336
 -0.004  -0.013   0.000   0.002  -0.006   0.000   0.000   0.305
 -0.000  -0.000  -0.011  -0.000  -0.000  -0.003  -0.475  -0.000
 -0.005   0.004  -0.000   0.002  -0.004  -0.000   0.000  -0.286
 -0.000   0.004  -0.000   0.000   0.001  -0.000  -0.000   0.005
 -0.001   0.007  -0.000   0.000   0.002  -0.000  -0.000   0.010
 pseudopotential strength for first ion, spin component:           2
-47.397   0.001  -0.000  10.111  -0.005   0.000  -0.000  -0.004
  0.001 -47.406   0.000  -0.005  10.123  -0.000  -0.000   0.004
 -0.000   0.000 -47.440   0.000  -0.000  10.141   0.003  -0.000
 10.111  -0.005   0.000   4.886   0.002   0.000   0.000  -0.000
 -0.005  10.123  -0.000   0.002   4.881  -0.000   0.000  -0.001
  0.000  -0.000  10.141   0.000  -0.000   4.876  -0.004   0.000
 -0.000  -0.000   0.003   0.000   0.000  -0.004  -5.986  -0.000
 -0.004   0.004  -0.000  -0.000  -0.001   0.000  -0.000  -5.815
  0.001  -0.033   0.000  -0.000   0.016  -0.000   0.000  -0.366
 -0.000  -0.000  -0.021   0.000   0.000   0.010   0.560  -0.000
  0.000  -0.009  -0.000  -0.002   0.005   0.000   0.000   0.354
 -0.000  -0.000   0.003   0.000   0.000  -0.004  -6.426  -0.000
 -0.004   0.004  -0.000  -0.000  -0.001   0.000  -0.000  -6.257
  0.001  -0.032   0.000  -0.000   0.016  -0.000   0.000  -0.361
 -0.000  -0.000  -0.021   0.000   0.000   0.010   0.552  -0.000
  0.000  -0.008  -0.000  -0.002   0.005   0.000   0.000   0.349
 -0.001   0.010   0.000   0.000  -0.000   0.000   0.000  -0.004
 -0.002   0.021   0.000   0.000   0.000   0.000   0.000  -0.009
 total augmentation occupancy for first ion, spin component:           1
  1.984   0.000   0.000  -0.064   0.000   0.000  -0.000   0.007   0.001  -0.000   0.003   0.000  -0.006  -0.001   0.000  -0.002
  0.000   1.984  -0.000   0.000  -0.063  -0.000  -0.000   0.000  -0.015  -0.000  -0.007   0.000  -0.000   0.014   0.000   0.006
  0.000  -0.000   1.984   0.000  -0.000  -0.062   0.004  -0.000   0.000  -0.005  -0.000  -0.003   0.000  -0.000   0.006   0.000
 -0.064   0.000   0.000   0.244  -0.004  -0.000  -0.000   0.099   0.014  -0.000   0.066   0.000  -0.100  -0.014   0.000  -0.065
  0.000  -0.063  -0.000  -0.004   0.266   0.000  -0.000  -0.042  -0.183  -0.000  -0.099   0.000   0.033   0.195   0.000   0.101
  0.000  -0.000  -0.062  -0.000   0.000   0.285   0.117  -0.000   0.000  -0.063  -0.000  -0.112   0.000  -0.000   0.068   0.000
 -0.000  -0.000   0.004  -0.000  -0.000   0.117   6.665   0.000   0.000  -1.687  -0.000  -6.191  -0.000  -0.000   0.042   0.000
  0.007   0.000  -0.000   0.099  -0.042  -0.000   0.000   5.762   0.882   0.000  -0.664  -0.000  -5.693   0.186  -0.000  -0.355
  0.001  -0.015   0.000   0.014  -0.183   0.000   0.000   0.882   8.435  -0.000   0.335  -0.000   0.213  -6.632  -0.000   0.236
 -0.000  -0.000  -0.005  -0.000  -0.000  -0.063  -1.687   0.000  -0.000   7.123  -0.000   0.019  -0.000   0.000  -6.345   0.000
  0.003  -0.007  -0.000   0.066  -0.099  -0.000  -0.000  -0.664   0.335  -0.000   8.134  -0.000  -0.379   0.234   0.000  -6.367
  0.000   0.000  -0.003   0.000   0.000  -0.112  -6.191  -0.000  -0.000   0.019  -0.000   6.703   0.000   0.000   1.393   0.000
 -0.006  -0.000   0.000  -0.100   0.033   0.000  -0.000  -5.693   0.213  -0.000  -0.379   0.000   6.537  -1.134   0.000   1.257
 -0.001   0.014  -0.000  -0.014   0.195  -0.000  -0.000   0.186  -6.632   0.000   0.234   0.000  -1.134   6.023  -0.000  -0.715
  0.000   0.000   0.006   0.000   0.000   0.068   0.042  -0.000  -0.000  -6.345   0.000   1.393   0.000  -0.000   6.610  -0.000
 -0.002   0.006   0.000  -0.065   0.101   0.000   0.000  -0.355   0.236   0.000  -6.367   0.000   1.257  -0.715  -0.000   5.774
  0.001  -0.026   0.000  -0.004   0.034  -0.000  -0.000   0.345  -0.064   0.000  -0.827  -0.000  -0.337   0.070  -0.000   0.808
 -0.001   0.014  -0.000   0.001  -0.008   0.000   0.000  -0.085   0.009  -0.000   0.205  -0.000   0.089  -0.013   0.000  -0.191
 total augmentation occupancy for first ion, spin component:           2
  0.003  -0.000   0.000   0.009  -0.001   0.000  -0.000   0.003   0.001  -0.000   0.002   0.000  -0.003  -0.001   0.000  -0.002
 -0.000   0.003  -0.000  -0.001   0.010  -0.000  -0.000   0.003  -0.005  -0.000  -0.002   0.000  -0.003   0.005   0.000   0.002
  0.000  -0.000   0.003   0.000  -0.000   0.009  -0.000  -0.000   0.000  -0.003  -0.000  -0.000   0.000  -0.000   0.003   0.000
  0.009  -0.001   0.000  -0.015   0.000   0.000  -0.000  -0.027  -0.030  -0.000  -0.004   0.000   0.018   0.020   0.000   0.002
 -0.001   0.010  -0.000   0.000  -0.011   0.000  -0.000   0.008   0.054   0.000   0.038   0.000  -0.008  -0.029   0.000  -0.023
  0.000  -0.000   0.009   0.000   0.000  -0.021  -0.035  -0.000  -0.000   0.034   0.000   0.024   0.000  -0.000  -0.021   0.000
 -0.000  -0.000  -0.000  -0.000  -0.000  -0.035  -2.776  -0.000   0.000   3.912   0.000   1.337   0.000  -0.000  -2.693  -0.000
  0.003   0.003  -0.000  -0.027   0.008  -0.000  -0.000  -1.473  -2.517   0.000   2.262   0.000   0.379   1.752   0.000  -1.557
  0.001  -0.005   0.000  -0.030   0.054  -0.000   0.000  -2.517  -6.055   0.000  -1.481  -0.000   1.726   3.611  -0.000   1.084
 -0.000  -0.000  -0.003  -0.000   0.000   0.034   3.912   0.000   0.000  -3.513   0.000  -2.676  -0.000  -0.000   1.855  -0.000
  0.002  -0.002  -0.000  -0.004   0.038   0.000   0.000   2.262  -1.481   0.000  -5.682  -0.000  -1.524   1.081  -0.000   3.280
  0.000   0.000  -0.000   0.000   0.000   0.024   1.337   0.000  -0.000  -2.676  -0.000  -0.459  -0.000   0.000   1.904   0.000
 -0.003  -0.003   0.000   0.018  -0.008   0.000   0.000   0.379   1.726  -0.000  -1.524  -0.000   0.252  -1.252   0.000   1.095
 -0.001   0.005  -0.000   0.020  -0.029  -0.000  -0.000   1.752   3.611  -0.000   1.081   0.000  -1.252  -2.068   0.000  -0.810
  0.000   0.000   0.003   0.000   0.000  -0.021  -2.693   0.000  -0.000   1.855  -0.000   1.904   0.000   0.000  -0.827   0.000
 -0.002   0.002   0.000   0.002  -0.023   0.000  -0.000  -1.557   1.084  -0.000   3.280   0.000   1.095  -0.810   0.000  -1.791
  0.000  -0.003   0.001  -0.002   0.007  -0.000   0.000  -0.118   0.077  -0.000   0.145  -0.000   0.055  -0.054   0.000  -0.064
 -0.000   0.002  -0.000   0.000  -0.000   0.000  -0.000   0.020  -0.010   0.000  -0.039   0.000  -0.008   0.010   0.000   0.016


------------------------ aborting loop because EDIFF is reached ----------------------------------------


    FORLOC:  cpu time    0.0015: real time    0.0101
    FORNL :  cpu time    3.8639: real time    5.3773
    STRESS:  cpu time  124.0671: real time  131.5328
    FORCOR:  cpu time    0.1245: real time    0.1258
    OFIELD:  cpu time    0.0004: real time    0.0004

  FORCE on cell =-STRESS in cart. coord.  units (eV):
  Direction    XX          YY          ZZ          XY          YZ          ZX
  --------------------------------------------------------------------------------------
  Alpha Z   466.04525   466.04525   466.04525
  Ewald   -1283.45103 -4116.79837 -2218.84586    -0.00011    -0.00115    -0.00007
  Hartree  2004.33339    98.25089  1404.19835     0.00006    -0.00052    -0.00005
  E(xc)    -593.21434  -592.01131  -592.52114    -0.00000     0.00000    -0.00000
  Local   -2350.66293  2335.90554  -841.47280     0.00006     0.00162     0.00014
  n-local  -296.02843  -306.19723  -302.08121    -0.00001    -0.00001    -0.00000
  augment   475.16958   485.57249   481.01946    -0.00000     0.00001    -0.00000
  Kinetic  1577.80547  1629.26583  1603.65059    -0.00002     0.00005    -0.00002
  Fock        0.00000     0.00000     0.00000     0.00000     0.00000     0.00000
  -------------------------------------------------------------------------------------
  Total      -0.00306     0.03308    -0.00737    -0.00003    -0.00000    -0.00002
  in kB      -0.04107     0.44405    -0.09887    -0.00035    -0.00002    -0.00026
  external pressure =        0.10 kB  Pullay stress =        0.00 kB


 VOLUME and BASIS-vectors are now :
 -----------------------------------------------------------------------------
  energy-cutoff  :      520.00
  volume of cell :      119.37
      direct lattice vectors                 reciprocal lattice vectors
     2.857512554  0.000000619 -0.000000203     0.349954718 -0.000000012 -0.000000092
     0.000000161  4.498364923 -0.000001088    -0.000000048  0.222302996  0.000000067
     0.000002437 -0.000002804  9.286365368     0.000000008  0.000000026  0.107684757

  length of vectors
     2.857512554  4.498364923  9.286365368     0.349954718  0.222302996  0.107684757


 FORCES acting on ions:
    Electron-Ion                     Ewald-Force                    Non-Local-Force
 -----------------------------------------------------------------------------------------------
   0.497E-02 -.152E+02 0.127E+03   -.434E-02 0.151E+02 -.128E+03   -.653E-03 0.333E-01 0.122E+01
   0.465E-02 0.152E+02 -.127E+03   -.402E-02 -.151E+02 0.128E+03   -.633E-03 -.334E-01 -.122E+01
   0.511E-02 -.152E+02 -.127E+03   -.447E-02 0.151E+02 0.128E+03   -.657E-03 0.334E-01 -.122E+01
   0.467E-02 0.152E+02 0.127E+03   -.404E-02 -.151E+02 -.128E+03   -.640E-03 -.333E-01 0.122E+01
   -.201E-02 -.358E+03 0.293E+02   0.231E-02 0.384E+03 -.312E+02   -.304E-03 -.263E+02 0.196E+01
   -.191E-02 -.358E+03 -.293E+02   0.221E-02 0.384E+03 0.312E+02   -.307E-03 -.263E+02 -.196E+01
   -.207E-02 0.358E+03 0.293E+02   0.238E-02 -.384E+03 -.312E+02   -.314E-03 0.263E+02 0.196E+01
   -.211E-02 0.358E+03 -.293E+02   0.243E-02 -.384E+03 0.312E+02   -.326E-03 0.263E+02 -.196E+01
   -.134E-02 -.856E+02 -.280E+02   0.159E-02 0.915E+02 0.282E+02   -.239E-03 -.590E+01 -.241E+00
   -.174E-02 0.856E+02 -.280E+02   0.204E-02 -.915E+02 0.282E+02   -.279E-03 0.590E+01 -.241E+00
   -.152E-02 -.856E+02 0.280E+02   0.181E-02 0.915E+02 -.282E+02   -.280E-03 -.591E+01 0.239E+00
   -.180E-02 0.856E+02 0.280E+02   0.212E-02 -.915E+02 -.282E+02   -.291E-03 0.591E+01 0.239E+00
 -----------------------------------------------------------------------------------------------
   0.491E-02 0.561E-04 0.246E-02   0.166E-13 0.142E-13 0.178E-12   -.492E-02 -.713E-04 -.258E-02
 
 
 POSITION                                       TOTAL-FORCE (eV/Angst)
 -----------------------------------------------------------------------------------
      0.71439      0.08110      8.03808        -0.000022     -0.003163     -0.013875
      2.14314      4.41725      1.24827        -0.000006      0.002981      0.014016
      2.14314      2.33029      5.89146        -0.000022     -0.002986      0.014062
      0.71439      2.16808      3.39490        -0.000014      0.003181     -0.014116
      0.71437      3.20188      4.99166         0.000002      0.016334     -0.004095
      2.14313      0.95267      8.93788        -0.000006      0.016612      0.004315
      0.71437      3.54566      0.34847         0.000000     -0.016311     -0.004111
      2.14313      1.29652      4.29469        -0.000001     -0.016632      0.004355
      0.71438      0.87859      2.01335         0.000014     -0.012649     -0.014085
      0.71438      1.37059      6.65653         0.000024      0.012706     -0.014145
      2.14313      3.12780      2.62985         0.000008     -0.012721      0.013876
      2.14313      3.61975      7.27304         0.000023      0.012649      0.013801
 -----------------------------------------------------------------------------------
    total drift:                               -0.000016     -0.000015     -0.000114


--------------------------------------------------------------------------------------------------------



  FREE ENERGIE OF THE ION-ELECTRON SYSTEM (eV)
  ---------------------------------------------------
  free  energy   TOTEN  =      -130.68252596 eV

  energy  without entropy=     -130.68252596  energy(sigma->0) =     -130.68252596
 


--------------------------------------------------------------------------------------------------------


    POTLOK:  cpu time    1.4490: real time    1.4526


--------------------------------------------------------------------------------------------------------


 stress matrix after NEB project (eV)
     -0.00306     -0.00003     -0.00002
     -0.00003      0.03308     -0.00000
     -0.00002     -0.00000     -0.00737
  FORCES: max atom, RMS     0.019014    0.016846
  FORCE total and by dimension    0.058355    0.016632
  Stress total and by dimension    0.034032    0.033084
 writing wavefunctions
     LOOP+:  cpu time  322.5508: real time  349.7472
    4ORBIT:  cpu time    0.0000: real time    0.0000

 total amount of memory used by VASP MPI-rank0   245433. kBytes
=======================================================================

   base      :      30000. kBytes
   nonl-proj :      33692. kBytes
   fftplans  :       1491. kBytes
   grid      :       5125. kBytes
   one-center:         93. kBytes
   wavefun   :     175032. kBytes
 
  
  
 General timing and accounting informations for this job:
 ========================================================
  
                  Total CPU time used (sec):      340.865
                            User time (sec):      325.506
                          System time (sec):       15.359
                         Elapsed time (sec):      370.557
  
                   Maximum memory used (kb):      306792.
                   Average memory used (kb):           0.
  
                          Minor page faults:       326127
                          Major page faults:            0
                 Voluntary context switches:          741
