<?xml version="1.0" encoding="ISO-8859-1"?>
<modeling>
 <generator>
  <i name="program" type="string">vasp </i>
  <i name="version" type="string">5.4.4.18Apr17-6-g9f103f2a35  </i>
  <i name="subversion" type="string">(build Nov 08 2022 17:27:33) complex            parallel </i>
  <i name="platform" type="string">LinuxIFC </i>
  <i name="date" type="string">2022 11 23 </i>
  <i name="time" type="string">00:37:32 </i>
 </generator>
 <incar>
  <i type="string" name="PREC">accurate</i>
  <i type="string" name="ALGO"> All</i>
  <i type="int" name="ISPIN">     2</i>
  <i type="int" name="ICHARG">     0</i>
  <i type="int" name="NELM">   200</i>
  <i type="int" name="IBRION">     2</i>
  <i name="EDIFF">      0.00000100</i>
  <i name="EDIFFG">     -0.03000000</i>
  <i type="int" name="NSW">     0</i>
  <i type="int" name="ISIF">     3</i>
  <i type="int" name="ISYM">     0</i>
  <i name="ENCUT">    520.00000000</i>
  <i name="ENAUG">   1040.00000000</i>
  <v name="MAGMOM">     -5.00000000      5.00000000     -5.00000000      5.00000000      0.00000000      0.00000000      0.00000000      0.00000000      0.00000000      0.00000000      0.00000000      0.00000000</v>
  <i type="logical" name="LREAL"> F  </i>
  <i type="int" name="ISMEAR">     0</i>
  <i name="SIGMA">      0.01000000</i>
  <i name="KSPACING">      0.22000000</i>
  <i type="int" name="LMAXMIX">     4</i>
  <i type="logical" name="LWAVE"> T  </i>
  <i type="logical" name="LCHARG"> T  </i>
  <i type="logical" name="LVTOT"> T  </i>
  <i type="logical" name="LVHAR"> T  </i>
  <i type="int" name="LORBIT">     0</i>
  <i type="logical" name="LELF"> T  </i>
  <i type="logical" name="LASPH"> T  </i>
  <i type="logical" name="LAECHG"> T  </i>
  <v type="int" name="KPOINT_BSE">    -1     0     0     0</v>
  <i type="int" name="NELM">   200</i>
  <i type="string" name="GGA"> Pe</i>
  <i type="string" name="METAGGA"> R2scan</i>
  <i type="logical" name="LASPH"> T  </i>
  <i type="int" name="LMIXTAU">    -1</i>
 </incar>
 <structure name="primitive_cell" >
  <crystal>
   <varray name="basis" >
    <v>       2.85751255       0.00000062      -0.00000020 </v>
    <v>       0.00000016       4.49836492      -0.00000109 </v>
    <v>       0.00000244      -0.00000280       9.28636537 </v>
   </varray>
   <i name="volume">    119.36818702 </i>
   <varray name="rec_basis" >
    <v>       0.34995472      -0.00000001      -0.00000009 </v>
    <v>      -0.00000005       0.22230300       0.00000007 </v>
    <v>       0.00000001       0.00000003       0.10768476 </v>
   </varray>
  </crystal>
  <varray name="positions" >
   <v>       0.25000216       0.01802869      -0.13442111 </v>
   <v>      -0.25000078      -0.19531864      -0.21680454 </v>
   <v>       0.24999910       0.30468577      -0.28319289 </v>
   <v>      -0.25000157       0.21178089      -0.03752668 </v>
   <v>       0.24999857      -0.21178866       0.03752547 </v>
   <v>      -0.24999794      -0.01803169       0.13442006 </v>
   <v>       0.24999832      -0.28821141      -0.46247423 </v>
   <v>       0.24999931       0.19531401       0.21680694 </v>
   <v>      -0.24999791      -0.48196835      -0.36557981 </v>
   <v>      -0.25000129       0.28821952       0.46247316 </v>
   <v>      -0.25000037      -0.30468075       0.28319531 </v>
   <v>       0.25000240       0.48197163       0.36557933 </v>
  </varray>
 </structure>
 <varray name="primitive_index" >
  <v type="int" >        1 </v>
  <v type="int" >       12 </v>
  <v type="int" >       10 </v>
  <v type="int" >        6 </v>
  <v type="int" >        7 </v>
  <v type="int" >        2 </v>
  <v type="int" >        5 </v>
  <v type="int" >        9 </v>
  <v type="int" >        3 </v>
  <v type="int" >        8 </v>
  <v type="int" >       11 </v>
  <v type="int" >        4 </v>
 </varray>
 <kpoints>
  <generation param="Gamma">
   <v type="int" name="divisions">      10        7        4 </v>
   <v name="usershift">      0.00000000       0.00000000       0.00000000 </v>
   <v name="genvec1">      0.10000000       0.00000000       0.00000000 </v>
   <v name="genvec2">      0.00000000       0.14285714       0.00000000 </v>
   <v name="genvec3">      0.00000000       0.00000000       0.25000000 </v>
   <v name="shift">      0.00000000       0.00000000       0.00000000 </v>
  </generation>
  <varray name="kpointlist" >
   <v>       0.00000000       0.00000000       0.00000000 </v>
   <v>       0.10000000       0.00000000      -0.00000000 </v>
   <v>       0.20000000       0.00000000      -0.00000000 </v>
   <v>       0.30000000      -0.00000000       0.00000000 </v>
   <v>       0.40000000       0.00000000      -0.00000000 </v>
   <v>       0.50000000       0.00000000       0.00000000 </v>
   <v>       0.00000000       0.14285714      -0.00000000 </v>
   <v>       0.10000000       0.14285714      -0.00000000 </v>
   <v>       0.20000000       0.14285714      -0.00000000 </v>
   <v>       0.30000000       0.14285714      -0.00000000 </v>
   <v>       0.40000000       0.14285714       0.00000000 </v>
   <v>       0.50000000       0.14285714       0.00000000 </v>
   <v>      -0.40000000       0.14285714       0.00000000 </v>
   <v>      -0.30000000       0.14285714      -0.00000000 </v>
   <v>      -0.20000000       0.14285714       0.00000000 </v>
   <v>      -0.10000000       0.14285714      -0.00000000 </v>
   <v>       0.00000000       0.28571429      -0.00000000 </v>
   <v>       0.10000000       0.28571429      -0.00000000 </v>
   <v>       0.20000000       0.28571429      -0.00000000 </v>
   <v>       0.30000000       0.28571429       0.00000000 </v>
   <v>       0.40000000       0.28571429      -0.00000000 </v>
   <v>       0.50000000       0.28571429      -0.00000000 </v>
   <v>      -0.40000000       0.28571429       0.00000000 </v>
   <v>      -0.30000000       0.28571429       0.00000000 </v>
   <v>      -0.20000000       0.28571429      -0.00000000 </v>
   <v>      -0.10000000       0.28571429      -0.00000000 </v>
   <v>       0.00000000       0.42857143      -0.00000000 </v>
   <v>       0.10000000       0.42857143      -0.00000000 </v>
   <v>       0.20000000       0.42857143      -0.00000000 </v>
   <v>       0.30000000       0.42857143      -0.00000000 </v>
   <v>       0.40000000       0.42857143      -0.00000000 </v>
   <v>       0.50000000       0.42857143      -0.00000000 </v>
   <v>      -0.40000000       0.42857143       0.00000000 </v>
   <v>      -0.30000000       0.42857143      -0.00000000 </v>
   <v>      -0.20000000       0.42857143       0.00000000 </v>
   <v>      -0.10000000       0.42857143      -0.00000000 </v>
   <v>       0.00000000      -0.00000000       0.25000000 </v>
   <v>       0.10000000      -0.00000000       0.25000000 </v>
   <v>       0.20000000      -0.00000000       0.25000000 </v>
   <v>       0.30000000      -0.00000000       0.25000000 </v>
   <v>       0.40000000       0.00000000       0.25000000 </v>
   <v>       0.50000000       0.00000000       0.25000000 </v>
   <v>      -0.40000000      -0.00000000       0.25000000 </v>
   <v>      -0.30000000      -0.00000000       0.25000000 </v>
   <v>      -0.20000000       0.00000000       0.25000000 </v>
   <v>      -0.10000000      -0.00000000       0.25000000 </v>
   <v>       0.00000000       0.14285714       0.25000000 </v>
   <v>       0.10000000       0.14285714       0.25000000 </v>
   <v>       0.20000000       0.14285714       0.25000000 </v>
   <v>       0.30000000       0.14285714       0.25000000 </v>
   <v>       0.40000000       0.14285714       0.25000000 </v>
   <v>       0.50000000       0.14285714       0.25000000 </v>
   <v>      -0.40000000       0.14285714       0.25000000 </v>
   <v>      -0.30000000       0.14285714       0.25000000 </v>
   <v>      -0.20000000       0.14285714       0.25000000 </v>
   <v>      -0.10000000       0.14285714       0.25000000 </v>
   <v>       0.00000000       0.28571429       0.25000000 </v>
   <v>       0.10000000       0.28571429       0.25000000 </v>
   <v>       0.20000000       0.28571429       0.25000000 </v>
   <v>       0.30000000       0.28571429       0.25000000 </v>
   <v>       0.40000000       0.28571429       0.25000000 </v>
   <v>       0.50000000       0.28571429       0.25000000 </v>
   <v>      -0.40000000       0.28571429       0.25000000 </v>
   <v>      -0.30000000       0.28571429       0.25000000 </v>
   <v>      -0.20000000       0.28571429       0.25000000 </v>
   <v>      -0.10000000       0.28571429       0.25000000 </v>
   <v>       0.00000000       0.42857143       0.25000000 </v>
   <v>       0.10000000       0.42857143       0.25000000 </v>
   <v>       0.20000000       0.42857143       0.25000000 </v>
   <v>       0.30000000       0.42857143       0.25000000 </v>
   <v>       0.40000000       0.42857143       0.25000000 </v>
   <v>       0.50000000       0.42857143       0.25000000 </v>
   <v>      -0.40000000       0.42857143       0.25000000 </v>
   <v>      -0.30000000       0.42857143       0.25000000 </v>
   <v>      -0.20000000       0.42857143       0.25000000 </v>
   <v>      -0.10000000       0.42857143       0.25000000 </v>
   <v>       0.00000000      -0.42857143       0.25000000 </v>
   <v>       0.10000000      -0.42857143       0.25000000 </v>
   <v>       0.20000000      -0.42857143       0.25000000 </v>
   <v>       0.30000000      -0.42857143       0.25000000 </v>
   <v>       0.40000000      -0.42857143       0.25000000 </v>
   <v>       0.50000000      -0.42857143       0.25000000 </v>
   <v>      -0.40000000      -0.42857143       0.25000000 </v>
   <v>      -0.30000000      -0.42857143       0.25000000 </v>
   <v>      -0.20000000      -0.42857143       0.25000000 </v>
   <v>      -0.10000000      -0.42857143       0.25000000 </v>
   <v>       0.00000000      -0.28571429       0.25000000 </v>
   <v>       0.10000000      -0.28571429       0.25000000 </v>
   <v>       0.20000000      -0.28571429       0.25000000 </v>
   <v>       0.30000000      -0.28571429       0.25000000 </v>
   <v>       0.40000000      -0.28571429       0.25000000 </v>
   <v>       0.50000000      -0.28571429       0.25000000 </v>
   <v>      -0.40000000      -0.28571429       0.25000000 </v>
   <v>      -0.30000000      -0.28571429       0.25000000 </v>
   <v>      -0.20000000      -0.28571429       0.25000000 </v>
   <v>      -0.10000000      -0.28571429       0.25000000 </v>
   <v>      -0.00000000      -0.14285714       0.25000000 </v>
   <v>       0.10000000      -0.14285714       0.25000000 </v>
   <v>       0.20000000      -0.14285714       0.25000000 </v>
   <v>       0.30000000      -0.14285714       0.25000000 </v>
   <v>       0.40000000      -0.14285714       0.25000000 </v>
   <v>       0.50000000      -0.14285714       0.25000000 </v>
   <v>      -0.40000000      -0.14285714       0.25000000 </v>
   <v>      -0.30000000      -0.14285714       0.25000000 </v>
   <v>      -0.20000000      -0.14285714       0.25000000 </v>
   <v>      -0.10000000      -0.14285714       0.25000000 </v>
   <v>       0.00000000      -0.00000000       0.50000000 </v>
   <v>       0.10000000       0.00000000       0.50000000 </v>
   <v>       0.20000000      -0.00000000       0.50000000 </v>
   <v>       0.30000000      -0.00000000       0.50000000 </v>
   <v>       0.40000000      -0.00000000       0.50000000 </v>
   <v>       0.50000000      -0.00000000       0.50000000 </v>
   <v>       0.00000000       0.14285714       0.50000000 </v>
   <v>       0.10000000       0.14285714       0.50000000 </v>
   <v>       0.20000000       0.14285714       0.50000000 </v>
   <v>       0.30000000       0.14285714       0.50000000 </v>
   <v>       0.40000000       0.14285714       0.50000000 </v>
   <v>       0.50000000       0.14285714       0.50000000 </v>
   <v>      -0.40000000       0.14285714       0.50000000 </v>
   <v>      -0.30000000       0.14285714       0.50000000 </v>
   <v>      -0.20000000       0.14285714       0.50000000 </v>
   <v>      -0.10000000       0.14285714       0.50000000 </v>
   <v>       0.00000000       0.28571429       0.50000000 </v>
   <v>       0.10000000       0.28571429       0.50000000 </v>
   <v>       0.20000000       0.28571429       0.50000000 </v>
   <v>       0.30000000       0.28571429       0.50000000 </v>
   <v>       0.40000000       0.28571429       0.50000000 </v>
   <v>       0.50000000       0.28571429       0.50000000 </v>
   <v>      -0.40000000       0.28571429       0.50000000 </v>
   <v>      -0.30000000       0.28571429       0.50000000 </v>
   <v>      -0.20000000       0.28571429       0.50000000 </v>
   <v>      -0.10000000       0.28571429       0.50000000 </v>
   <v>       0.00000000       0.42857143       0.50000000 </v>
   <v>       0.10000000       0.42857143       0.50000000 </v>
   <v>       0.20000000       0.42857143       0.50000000 </v>
   <v>       0.30000000       0.42857143       0.50000000 </v>
   <v>       0.40000000       0.42857143       0.50000000 </v>
   <v>       0.50000000       0.42857143       0.50000000 </v>
   <v>      -0.40000000       0.42857143       0.50000000 </v>
   <v>      -0.30000000       0.42857143       0.50000000 </v>
   <v>      -0.20000000       0.42857143       0.50000000 </v>
   <v>      -0.10000000       0.42857143       0.50000000 </v>
  </varray>
  <varray name="weights" >
   <v>       0.00357143 </v>
   <v>       0.00714286 </v>
   <v>       0.00714286 </v>
   <v>       0.00714286 </v>
   <v>       0.00714286 </v>
   <v>       0.00357143 </v>
   <v>       0.00714286 </v>
   <v>       0.00714286 </v>
   <v>       0.00714286 </v>
   <v>       0.00714286 </v>
   <v>       0.00714286 </v>
   <v>       0.00714286 </v>
   <v>       0.00714286 </v>
   <v>       0.00714286 </v>
   <v>       0.00714286 </v>
   <v>       0.00714286 </v>
   <v>       0.00714286 </v>
   <v>       0.00714286 </v>
   <v>       0.00714286 </v>
   <v>       0.00714286 </v>
   <v>       0.00714286 </v>
   <v>       0.00714286 </v>
   <v>       0.00714286 </v>
   <v>       0.00714286 </v>
   <v>       0.00714286 </v>
   <v>       0.00714286 </v>
   <v>       0.00714286 </v>
   <v>       0.00714286 </v>
   <v>       0.00714286 </v>
   <v>       0.00714286 </v>
   <v>       0.00714286 </v>
   <v>       0.00714286 </v>
   <v>       0.00714286 </v>
   <v>       0.00714286 </v>
   <v>       0.00714286 </v>
   <v>       0.00714286 </v>
   <v>       0.00714286 </v>
   <v>       0.00714286 </v>
   <v>       0.00714286 </v>
   <v>       0.00714286 </v>
   <v>       0.00714286 </v>
   <v>       0.00714286 </v>
   <v>       0.00714286 </v>
   <v>       0.00714286 </v>
   <v>       0.00714286 </v>
   <v>       0.00714286 </v>
   <v>       0.00714286 </v>
   <v>       0.00714286 </v>
   <v>       0.00714286 </v>
   <v>       0.00714286 </v>
   <v>       0.00714286 </v>
   <v>       0.00714286 </v>
   <v>       0.00714286 </v>
   <v>       0.00714286 </v>
   <v>       0.00714286 </v>
   <v>       0.00714286 </v>
   <v>       0.00714286 </v>
   <v>       0.00714286 </v>
   <v>       0.00714286 </v>
   <v>       0.00714286 </v>
   <v>       0.00714286 </v>
   <v>       0.00714286 </v>
   <v>       0.00714286 </v>
   <v>       0.00714286 </v>
   <v>       0.00714286 </v>
   <v>       0.00714286 </v>
   <v>       0.00714286 </v>
   <v>       0.00714286 </v>
   <v>       0.00714286 </v>
   <v>       0.00714286 </v>
   <v>       0.00714286 </v>
   <v>       0.00714286 </v>
   <v>       0.00714286 </v>
   <v>       0.00714286 </v>
   <v>       0.00714286 </v>
   <v>       0.00714286 </v>
   <v>       0.00714286 </v>
   <v>       0.00714286 </v>
   <v>       0.00714286 </v>
   <v>       0.00714286 </v>
   <v>       0.00714286 </v>
   <v>       0.00714286 </v>
   <v>       0.00714286 </v>
   <v>       0.00714286 </v>
   <v>       0.00714286 </v>
   <v>       0.00714286 </v>
   <v>       0.00714286 </v>
   <v>       0.00714286 </v>
   <v>       0.00714286 </v>
   <v>       0.00714286 </v>
   <v>       0.00714286 </v>
   <v>       0.00714286 </v>
   <v>       0.00714286 </v>
   <v>       0.00714286 </v>
   <v>       0.00714286 </v>
   <v>       0.00714286 </v>
   <v>       0.00714286 </v>
   <v>       0.00714286 </v>
   <v>       0.00714286 </v>
   <v>       0.00714286 </v>
   <v>       0.00714286 </v>
   <v>       0.00714286 </v>
   <v>       0.00714286 </v>
   <v>       0.00714286 </v>
   <v>       0.00714286 </v>
   <v>       0.00714286 </v>
   <v>       0.00357143 </v>
   <v>       0.00714286 </v>
   <v>       0.00714286 </v>
   <v>       0.00714286 </v>
   <v>       0.00714286 </v>
   <v>       0.00357143 </v>
   <v>       0.00714286 </v>
   <v>       0.00714286 </v>
   <v>       0.00714286 </v>
   <v>       0.00714286 </v>
   <v>       0.00714286 </v>
   <v>       0.00714286 </v>
   <v>       0.00714286 </v>
   <v>       0.00714286 </v>
   <v>       0.00714286 </v>
   <v>       0.00714286 </v>
   <v>       0.00714286 </v>
   <v>       0.00714286 </v>
   <v>       0.00714286 </v>
   <v>       0.00714286 </v>
   <v>       0.00714286 </v>
   <v>       0.00714286 </v>
   <v>       0.00714286 </v>
   <v>       0.00714286 </v>
   <v>       0.00714286 </v>
   <v>       0.00714286 </v>
   <v>       0.00714286 </v>
   <v>       0.00714286 </v>
   <v>       0.00714286 </v>
   <v>       0.00714286 </v>
   <v>       0.00714286 </v>
   <v>       0.00714286 </v>
   <v>       0.00714286 </v>
   <v>       0.00714286 </v>
   <v>       0.00714286 </v>
   <v>       0.00714286 </v>
  </varray>
 </kpoints>
 <parameters>
  <separator name="general" >
   <i type="string" name="SYSTEM">unknown system</i>
   <i type="logical" name="LCOMPAT"> F  </i>
  </separator>
  <separator name="electronic" >
   <i type="string" name="PREC">accura</i>
   <i name="ENMAX">    520.00000000</i>
   <i name="ENAUG">   1040.00000000</i>
   <i name="EDIFF">      0.00000100</i>
   <i type="int" name="IALGO">    58</i>
   <i type="int" name="IWAVPR">    10</i>
   <i type="int" name="NBANDS">    60</i>
   <i name="NELECT">    100.00000000</i>
   <i type="int" name="TURBO">     0</i>
   <i type="int" name="IRESTART">     0</i>
   <i type="int" name="NREBOOT">     0</i>
   <i type="int" name="NMIN">     0</i>
   <i name="EREF">      0.00000000</i>
   <separator name="electronic smearing" >
    <i type="int" name="ISMEAR">     0</i>
    <i name="SIGMA">      0.01000000</i>
    <i name="KSPACING">      0.22000000</i>
    <i type="logical" name="KGAMMA"> T  </i>
   </separator>
   <separator name="electronic projectors" >
    <i type="logical" name="LREAL"> F  </i>
    <v name="ROPT">      0.00000000      0.00000000</v>
    <i type="int" name="LMAXPAW">  -100</i>
    <i type="int" name="LMAXMIX">     4</i>
    <i type="logical" name="NLSPLINE"> F  </i>
   </separator>
   <separator name="electronic startup" >
    <i type="int" name="ISTART">     1</i>
    <i type="int" name="ICHARG">     0</i>
    <i type="int" name="INIWAV">     1</i>
   </separator>
   <separator name="electronic spin" >
    <i type="int" name="ISPIN">     2</i>
    <i type="logical" name="LNONCOLLINEAR"> F  </i>
    <v name="MAGMOM">     -5.00000000      5.00000000     -5.00000000      5.00000000      0.00000000      0.00000000      0.00000000      0.00000000      0.00000000      0.00000000      0.00000000      0.00000000</v>
    <i name="NUPDOWN">     -1.00000000</i>
    <i type="logical" name="LSORBIT"> F  </i>
    <v name="SAXIS">      0.00000000      0.00000000      1.00000000</v>
    <i type="logical" name="LSPIRAL"> F  </i>
    <v name="QSPIRAL">      0.00000000      0.00000000      0.00000000</v>
    <i type="logical" name="LZEROZ"> F  </i>
   </separator>
   <separator name="electronic exchange-correlation" >
    <i type="logical" name="LASPH"> T  </i>
    <i type="logical" name="LMETAGGA"> F  </i>
   </separator>
   <separator name="electronic convergence" >
    <i type="int" name="NELM">   200</i>
    <i type="int" name="NELMDL">     0</i>
    <i type="int" name="NELMIN">     2</i>
    <i name="ENINI">    520.00000000</i>
    <separator name="electronic convergence detail" >
     <i type="logical" name="LDIAG"> T  </i>
     <i type="logical" name="LSUBROT"> F  </i>
     <i name="WEIMIN">      0.00000000</i>
     <i name="EBREAK">      0.00000000</i>
     <i name="DEPER">      0.30000000</i>
     <i type="int" name="NRMM">     4</i>
     <i name="TIME">      0.40000000</i>
    </separator>
   </separator>
   <separator name="electronic mixer" >
    <i name="AMIX">      0.40000000</i>
    <i name="BMIX">      1.00000000</i>
    <i name="AMIN">      0.10000000</i>
    <i name="AMIX_MAG">      1.60000000</i>
    <i name="BMIX_MAG">      1.00000000</i>
    <separator name="electronic mixer details" >
     <i type="int" name="IMIX">     4</i>
     <i type="logical" name="MIXFIRST"> F  </i>
     <i type="int" name="MAXMIX">   -45</i>
     <i name="WC">    100.00000000</i>
     <i type="int" name="INIMIX">     1</i>
     <i type="int" name="MIXPRE">     1</i>
     <i type="int" name="MREMOVE">     5</i>
    </separator>
   </separator>
   <separator name="electronic dipolcorrection" >
    <i type="logical" name="LDIPOL"> F  </i>
    <i type="logical" name="LMONO"> F  </i>
    <i type="int" name="IDIPOL">     0</i>
    <i name="EPSILON">      1.00000000</i>
    <v name="DIPOL">   -100.00000000   -100.00000000   -100.00000000</v>
    <i name="EFIELD">      0.00000000</i>
   </separator>
  </separator>
  <separator name="grids" >
   <i type="int" name="NGX">    24</i>
   <i type="int" name="NGY">    36</i>
   <i type="int" name="NGZ">    70</i>
   <i type="int" name="NGXF">    48</i>
   <i type="int" name="NGYF">    72</i>
   <i type="int" name="NGZF">   140</i>
   <i type="logical" name="ADDGRID"> F  </i>
  </separator>
  <separator name="ionic" >
   <i type="int" name="NSW">     0</i>
   <i type="int" name="IBRION">    -1</i>
   <i type="int" name="MDALGO">     0</i>
   <i type="int" name="ISIF">     3</i>
   <i name="PSTRESS">      0.00000000</i>
   <i name="EDIFFG">     -0.03000000</i>
   <i type="int" name="NFREE">     1</i>
   <i name="POTIM">      0.50000000</i>
   <i name="SMASS">     -3.00000000</i>
   <i name="SCALEE">      1.00000000</i>
  </separator>
  <separator name="ionic md" >
   <i name="TEBEG">      0.00010000</i>
   <i name="TEEND">      0.00010000</i>
   <i type="int" name="NBLOCK">     1</i>
   <i type="int" name="KBLOCK">     1</i>
   <i type="int" name="NPACO">   256</i>
   <i name="APACO">     16.00000000</i>
  </separator>
  <separator name="symmetry" >
   <i type="int" name="ISYM">     0</i>
   <i name="SYMPREC">      0.00001000</i>
  </separator>
  <separator name="dos" >
   <i type="int" name="LORBIT">     0</i>
   <v name="RWIGS">     -1.00000000     -1.00000000</v>
   <i type="int" name="NEDOS">   301</i>
   <i name="EMIN">     10.00000000</i>
   <i name="EMAX">    -10.00000000</i>
   <i name="EFERMI">      0.00000000</i>
  </separator>
  <separator name="writing" >
   <i type="int" name="NWRITE">     2</i>
   <i type="logical" name="LWAVE"> T  </i>
   <i type="logical" name="LDOWNSAMPLE"> F  </i>
   <i type="logical" name="LCHARG"> T  </i>
   <i type="logical" name="LPARD"> F  </i>
   <i type="logical" name="LVTOT"> F  </i>
   <i type="logical" name="LVHAR"> T  </i>
   <i type="logical" name="LELF"> T  </i>
   <i type="logical" name="LOPTICS"> F  </i>
   <v name="STM">      0.00000000      0.00000000      0.00000000      0.00000000      0.00000000      0.00000000      0.00000000</v>
  </separator>
  <separator name="performance" >
   <i type="int" name="NPAR">     4</i>
   <i type="int" name="NSIM">     4</i>
   <i type="int" name="NBLK">    -1</i>
   <i type="logical" name="LPLANE"> T  </i>
   <i type="logical" name="LSCALAPACK"> T  </i>
   <i type="logical" name="LSCAAWARE"> F  </i>
   <i type="logical" name="LSCALU"> F  </i>
   <i type="logical" name="LASYNC"> F  </i>
   <i type="logical" name="LORBITALREAL"> F  </i>
  </separator>
  <separator name="miscellaneous" >
   <i type="int" name="IDIOT">     3</i>
   <i type="int" name="ISPECIAL">     0</i>
   <i type="logical" name="LMUSIC"> F  </i>
   <v name="POMASS">     54.93800000     16.00000000</v>
   <v name="DARWINR">      0.00000000      0.00000000</v>
   <v name="DARWINV">      1.00000000      1.00000000</v>
   <i type="logical" name="LCORR"> T  </i>
  </separator>
  <i type="logical" name="GGA_COMPAT"> T  </i>
  <i type="logical" name="LBERRY"> F  </i>
  <i type="int" name="ICORELEVEL">     0</i>
  <i type="logical" name="LDAU"> F  </i>
  <i type="int" name="I_CONSTRAINED_M">     0</i>
  <separator name="electronic exchange-correlation" >
   <i type="string" name="GGA">PE</i>
   <i type="int" name="VOSKOWN">     0</i>
   <i type="logical" name="LHFCALC"> F  </i>
   <i type="string" name="PRECFOCK"></i>
   <i type="logical" name="LSYMGRAD"> F  </i>
   <i type="logical" name="LHFONE"> F  </i>
   <i type="logical" name="LRHFCALC"> F  </i>
   <i type="logical" name="LTHOMAS"> F  </i>
   <i type="logical" name="LMODELHF"> F  </i>
   <i name="ENCUT4O">     -1.00000000</i>
   <i type="int" name="EXXOEP">     0</i>
   <i type="int" name="FOURORBIT">     0</i>
   <i name="AEXX">      0.00000000</i>
   <i name="HFALPHA">      0.00000000</i>
   <i name="MCALPHA">      0.00000000</i>
   <i name="ALDAX">      1.00000000</i>
   <i name="AGGAX">      1.00000000</i>
   <i name="ALDAC">      1.00000000</i>
   <i name="AGGAC">      1.00000000</i>
   <i type="int" name="NKREDX">     1</i>
   <i type="int" name="NKREDY">     1</i>
   <i type="int" name="NKREDZ">     1</i>
   <i type="logical" name="SHIFTRED"> F  </i>
   <i type="logical" name="ODDONLY"> F  </i>
   <i type="logical" name="EVENONLY"> F  </i>
   <i type="int" name="LMAXFOCK">     0</i>
   <i type="int" name="NMAXFOCKAE">     0</i>
   <i type="logical" name="LFOCKAEDFT"> F  </i>
   <i name="HFSCREEN">      0.00000000</i>
   <i name="HFSCREENC">      0.00000000</i>
   <i type="int" name="NBANDSGWLOW">     0</i>
  </separator>
  <separator name="vdW DFT" >
   <i type="logical" name="LUSE_VDW"> F  </i>
   <i name="Zab_VDW">     -0.84910000</i>
   <i name="PARAM1">      0.12340000</i>
   <i name="PARAM2">      1.00000000</i>
   <i name="PARAM3">      0.00000000</i>
  </separator>
  <separator name="model GW" >
   <i type="int" name="MODEL_GW">     0</i>
   <i name="MODEL_EPS0">      5.96840935</i>
   <i name="MODEL_ALPHA">      1.00000000</i>
  </separator>
  <separator name="linear response parameters" >
   <i type="logical" name="LEPSILON"> F  </i>
   <i type="logical" name="LRPA"> F  </i>
   <i type="logical" name="LNABLA"> F  </i>
   <i type="logical" name="LVEL"> F  </i>
   <i type="int" name="KINTER">     0</i>
   <i name="CSHIFT">      0.10000000</i>
   <i name="OMEGAMAX">     -1.00000000</i>
   <i name="DEG_THRESHOLD">      0.00200000</i>
   <i name="RTIME">     -0.10000000</i>
   <i name="WPLASMAI">      0.00000000</i>
   <v name="DFIELD">      0.00000000      0.00000000      0.00000000</v>
   <v name="WPLASMA">      0.00000000      0.00000000      0.00000000      0.00000000      0.00000000      0.00000000      0.00000000      0.00000000      0.00000000</v>
  </separator>
  <separator name="orbital magnetization" >
   <i type="logical" name="NUCIND"> F  </i>
   <v name="MAGPOS">      0.00000000      0.00000000      0.00000000</v>
   <i type="logical" name="LNICSALL"> T  </i>
   <i type="logical" name="ORBITALMAG"> F  </i>
   <i type="logical" name="LMAGBLOCH"> F  </i>
   <i type="logical" name="LCHIMAG"> F  </i>
   <i type="logical" name="LGAUGE"> T  </i>
   <i type="int" name="MAGATOM">     0</i>
   <v name="MAGDIPOL">      0.00000000      0.00000000      0.00000000</v>
   <v name="AVECCONST">      0.00000000      0.00000000      0.00000000</v>
  </separator>
  <separator name="response functions" >
   <i type="logical" name="LADDER"> F  </i>
   <i type="logical" name="LRPAFORCE"> F  </i>
   <i type="logical" name="LFXC"> F  </i>
   <i type="logical" name="LHARTREE"> T  </i>
   <i type="int" name="IBSE">     0</i>
   <v type="int" name="KPOINT">    -1     0     0     0</v>
   <i type="logical" name="LTCTE"> F  </i>
   <i type="logical" name="LTETE"> F  </i>
   <i type="logical" name="LTRIPLET"> F  </i>
   <i type="logical" name="LFXCEPS"> F  </i>
   <i type="logical" name="LFXHEG"> F  </i>
   <i type="int" name="NATURALO">     2</i>
   <i type="logical" name="L2ORDER"> F  </i>
   <i type="logical" name="LMP2LT"> F  </i>
   <i type="logical" name="LUSEW"> F  </i>
   <i name="ENCUTGW">     -2.00000000</i>
   <i name="ENCUTGWSOFT">     -2.00000000</i>
   <i name="ENCUTLF">     -1.00000000</i>
   <i type="int" name="LMAXMP2">    -1</i>
   <i name="SCISSOR">      0.00000000</i>
   <i type="int" name="NOMEGA">     0</i>
   <i type="int" name="NOMEGAR">     0</i>
   <i type="int" name="NBANDSGW">    -1</i>
   <i type="int" name="NBANDSO">    -1</i>
   <i type="int" name="NBANDSV">    -1</i>
   <i type="int" name="NELM">   200</i>
   <i type="int" name="NELMHF">     1</i>
   <i type="int" name="DIM">     3</i>
   <i type="int" name="ANTIRES">     0</i>
   <i name="OMEGAMAX">    -30.00000000</i>
   <i name="OMEGAMIN">    -30.00000000</i>
   <i name="OMEGATL">   -200.00000000</i>
   <i type="int" name="OMEGAGRID">   140</i>
   <i name="CSHIFT">     -0.10000000</i>
   <i type="logical" name="SELFENERGY"> F  </i>
   <i type="logical" name="LSPECTRAL"> F  </i>
   <i type="logical" name="LSPECTRALGW"> F  </i>
   <i type="logical" name="LSINGLES"> F  </i>
   <i type="logical" name="LFERMIGW"> F  </i>
   <i type="logical" name="ODDONLYGW"> F  </i>
   <i type="logical" name="EVENONLYGW"> F  </i>
   <i type="int" name="NKREDLFX">     1</i>
   <i type="int" name="NKREDLFY">     1</i>
   <i type="int" name="NKREDLFZ">     1</i>
   <i type="int" name="MAXMEM">  2800</i>
   <i type="int" name="TELESCOPE">     0</i>
   <i type="int" name="TAUPAR">     1</i>
   <i type="int" name="OMEGAPAR">    -1</i>
   <i name="LAMBDA">      1.00000000</i>
  </separator>
  <separator name="External order field" >
   <i name="OFIELD_KAPPA">      0.00000000</i>
   <v name="OFIELD_K">      0.00000000      0.00000000      0.00000000</v>
   <i name="OFIELD_Q6_NEAR">      0.00000000</i>
   <i name="OFIELD_Q6_FAR">      0.00000000</i>
   <i name="OFIELD_A">      0.00000000</i>
  </separator>
 </parameters>
 <atominfo>
  <atoms>      12 </atoms>
  <types>       2 </types>
  <array name="atoms" >
   <dimension dim="1">ion</dimension>
   <field type="string">element</field>
   <field type="int">atomtype</field>
   <set>
    <rc><c>Mn</c><c>   1</c></rc>
    <rc><c>Mn</c><c>   1</c></rc>
    <rc><c>Mn</c><c>   1</c></rc>
    <rc><c>Mn</c><c>   1</c></rc>
    <rc><c>O </c><c>   2</c></rc>
    <rc><c>O </c><c>   2</c></rc>
    <rc><c>O </c><c>   2</c></rc>
    <rc><c>O </c><c>   2</c></rc>
    <rc><c>O </c><c>   2</c></rc>
    <rc><c>O </c><c>   2</c></rc>
    <rc><c>O </c><c>   2</c></rc>
    <rc><c>O </c><c>   2</c></rc>
   </set>
  </array>
  <array name="atomtypes" >
   <dimension dim="1">type</dimension>
   <field type="int">atomspertype</field>
   <field type="string">element</field>
   <field>mass</field>
   <field>valence</field>
   <field type="string">pseudopotential</field>
   <set>
    <rc><c>   4</c><c>Mn</c><c>     54.93800000</c><c>     13.00000000</c><c>  PAW_PBE Mn_pv 02Aug2007               </c></rc>
    <rc><c>   8</c><c>O </c><c>     16.00000000</c><c>      6.00000000</c><c>  PAW_PBE O 08Apr2002                   </c></rc>
   </set>
  </array>
 </atominfo>
 <structure name="initialpos" >
  <crystal>
   <varray name="basis" >
    <v>       2.85751255       0.00000062      -0.00000020 </v>
    <v>       0.00000016       4.49836492      -0.00000109 </v>
    <v>       0.00000244      -0.00000280       9.28636537 </v>
   </varray>
   <i name="volume">    119.36818702 </i>
   <varray name="rec_basis" >
    <v>       0.34995472      -0.00000001      -0.00000009 </v>
    <v>      -0.00000005       0.22230300       0.00000007 </v>
    <v>       0.00000001       0.00000003       0.10768476 </v>
   </varray>
  </crystal>
  <varray name="positions" >
   <v>       0.25000216       0.01802869       0.86557889 </v>
   <v>       0.75000206       0.98196831       0.13442006 </v>
   <v>       0.75000209       0.51803165       0.63442019 </v>
   <v>       0.25000240       0.48197163       0.36557933 </v>
   <v>       0.24999832       0.71178859       0.53752577 </v>
   <v>       0.74999843       0.21178089       0.96247332 </v>
   <v>       0.24999857       0.78821134       0.03752547 </v>
   <v>       0.74999871       0.28821952       0.46247316 </v>
   <v>       0.24999931       0.19531401       0.21680694 </v>
   <v>       0.24999910       0.30468577       0.71680711 </v>
   <v>       0.74999963       0.69531925       0.28319531 </v>
   <v>       0.74999922       0.80468136       0.78319546 </v>
  </varray>
 </structure>
 <calculation>
  <scstep>
   <time name="total">   48.40   48.59</time>
   <energy>
    <i name="alphaZ">    466.04524529 </i>
    <i name="ewald">  -7619.08416833 </i>
    <i name="hartreedc">  -3506.80384425 </i>
    <i name="XCdc">    593.00579183 </i>
    <i name="pawpsdc">  13035.12631566 </i>
    <i name="pawaedc"> -13307.39103374 </i>
    <i name="eentropy">     -0.00000000 </i>
    <i name="bandstr">  -1351.48720206 </i>
    <i name="atom">  11559.90638050 </i>
    <i name="e_fr_energy">   -130.68251511 </i>
    <i name="e_wo_entrp">   -130.68251511 </i>
    <i name="e_0_energy">   -130.68251511 </i>
   </energy>
  </scstep>
  <scstep>
   <time name="total">   57.10   61.35</time>
   <energy>
    <i name="e_fr_energy">   -130.68252542 </i>
    <i name="e_wo_entrp">   -130.68252542 </i>
    <i name="e_0_energy">   -130.68252542 </i>
   </energy>
  </scstep>
  <scstep>
   <time name="total">   82.65   94.92</time>
   <energy>
    <i name="alphaZ">    466.04524529 </i>
    <i name="ewald">  -7619.08416833 </i>
    <i name="hartreedc">  -3506.77954552 </i>
    <i name="XCdc">    593.00316240 </i>
    <i name="pawpsdc">  13035.43083984 </i>
    <i name="pawaedc"> -13307.69688774 </i>
    <i name="eentropy">     -0.00000000 </i>
    <i name="bandstr">  -1351.50755240 </i>
    <i name="atom">  11559.90638050 </i>
    <i name="e_fr_energy">   -130.68252596 </i>
    <i name="e_wo_entrp">   -130.68252596 </i>
    <i name="e_0_energy">   -130.68252596 </i>
   </energy>
  </scstep>
  <structure>
   <crystal>
    <varray name="basis" >
     <v>       2.85751255       0.00000062      -0.00000020 </v>
     <v>       0.00000016       4.49836492      -0.00000109 </v>
     <v>       0.00000244      -0.00000280       9.28636537 </v>
    </varray>
    <i name="volume">    119.36818702 </i>
    <varray name="rec_basis" >
     <v>       0.34995472      -0.00000001      -0.00000009 </v>
     <v>      -0.00000005       0.22230300       0.00000007 </v>
     <v>       0.00000001       0.00000003       0.10768476 </v>
    </varray>
   </crystal>
   <varray name="positions" >
    <v>       0.25000216       0.01802869       0.86557889 </v>
    <v>       0.75000206       0.98196831       0.13442006 </v>
    <v>       0.75000209       0.51803165       0.63442019 </v>
    <v>       0.25000240       0.48197163       0.36557933 </v>
    <v>       0.24999832       0.71178859       0.53752577 </v>
    <v>       0.74999843       0.21178089       0.96247332 </v>
    <v>       0.24999857       0.78821134       0.03752547 </v>
    <v>       0.74999871       0.28821952       0.46247316 </v>
    <v>       0.24999931       0.19531401       0.21680694 </v>
    <v>       0.24999910       0.30468577       0.71680711 </v>
    <v>       0.74999963       0.69531925       0.28319531 </v>
    <v>       0.74999922       0.80468136       0.78319546 </v>
   </varray>
  </structure>
  <varray name="forces" >
   <v>      -0.00002162      -0.00316269      -0.01387467 </v>
   <v>      -0.00000616       0.00298092       0.01401630 </v>
   <v>      -0.00002159      -0.00298637       0.01406194 </v>
   <v>      -0.00001389       0.00318089      -0.01411581 </v>
   <v>       0.00000173       0.01633403      -0.00409467 </v>
   <v>      -0.00000593       0.01661200       0.00431495 </v>
   <v>       0.00000043      -0.01631109      -0.00411055 </v>
   <v>      -0.00000143      -0.01663242       0.00435507 </v>
   <v>       0.00001390      -0.01264929      -0.01408483 </v>
   <v>       0.00002433       0.01270646      -0.01414479 </v>
   <v>       0.00000751      -0.01272132       0.01387628 </v>
   <v>       0.00002271       0.01264888       0.01380078 </v>
  </varray>
  <varray name="stress" >
   <v>      -0.04107094      -0.00035123      -0.00025945 </v>
   <v>      -0.00035072       0.44405316      -0.00001968 </v>
   <v>      -0.00026031      -0.00001995      -0.09887486 </v>
  </varray>
  <energy>
   <i name="e_fr_energy">   -130.68252596 </i>
   <i name="e_wo_entrp">   -130.68252596 </i>
   <i name="e_0_energy">     -0.00000000 </i>
  </energy>
  <time name="totalsc">  322.55  349.75</time>
  <eigenvalues>
   <array>
    <dimension dim="1">band</dimension>
    <dimension dim="2">kpoint</dimension>
    <dimension dim="3">spin</dimension>
    <field>eigene</field>
    <field>occ</field>
    <set>
     <set comment="spin 1">
      <set comment="kpoint 1">
       <r>  -48.7372    1.0000 </r>
       <r>  -48.7333    1.0000 </r>
       <r>  -48.7317    1.0000 </r>
       <r>  -48.7193    1.0000 </r>
       <r>  -48.6956    1.0000 </r>
       <r>  -48.6816    1.0000 </r>
       <r>  -44.7648    1.0000 </r>
       <r>  -44.7596    1.0000 </r>
       <r>  -44.7344    1.0000 </r>
       <r>  -44.7171    1.0000 </r>
       <r>  -44.5952    1.0000 </r>
       <r>  -44.5754    1.0000 </r>
       <r>  -16.7432    1.0000 </r>
       <r>  -16.1206    1.0000 </r>
       <r>  -15.8134    1.0000 </r>
       <r>  -15.0299    1.0000 </r>
       <r>  -14.7334    1.0000 </r>
       <r>  -14.6555    1.0000 </r>
       <r>  -14.5747    1.0000 </r>
       <r>  -14.4766    1.0000 </r>
       <r>   -3.4071    1.0000 </r>
       <r>   -2.8636    1.0000 </r>
       <r>   -2.7210    1.0000 </r>
       <r>   -1.9749    1.0000 </r>
       <r>   -1.8982    1.0000 </r>
       <r>   -1.7336    1.0000 </r>
       <r>   -1.6370    1.0000 </r>
       <r>   -1.5898    1.0000 </r>
       <r>   -1.1364    1.0000 </r>
       <r>   -1.1134    1.0000 </r>
       <r>   -0.9253    1.0000 </r>
       <r>   -0.4275    1.0000 </r>
       <r>   -0.2629    1.0000 </r>
       <r>    0.2528    1.0000 </r>
       <r>    0.2660    1.0000 </r>
       <r>    0.5352    1.0000 </r>
       <r>    0.6652    1.0000 </r>
       <r>    0.8758    1.0000 </r>
       <r>    1.2590    1.0000 </r>
       <r>    1.4577    1.0000 </r>
       <r>    1.7453    1.0000 </r>
       <r>    2.0420    1.0000 </r>
       <r>    2.1245    1.0000 </r>
       <r>    2.3677    1.0000 </r>
       <r>    2.5209    1.0000 </r>
       <r>    2.5387    1.0000 </r>
       <r>    2.5715    1.0000 </r>
       <r>    3.0535    1.0000 </r>
       <r>    3.3160    1.0000 </r>
       <r>    3.4546    1.0000 </r>
       <r>    5.4205    0.0000 </r>
       <r>    5.4929    0.0000 </r>
       <r>    5.7193    0.0000 </r>
       <r>    5.8758    0.0000 </r>
       <r>    5.9250    0.0000 </r>
       <r>    6.1185    0.0000 </r>
       <r>    7.0590    0.0000 </r>
       <r>    7.0969    0.0000 </r>
       <r>    7.1733    0.0000 </r>
       <r>    7.3248    0.0000 </r>
      </set>
      <set comment="kpoint 2">
       <r>  -48.7477    1.0000 </r>
       <r>  -48.7440    1.0000 </r>
       <r>  -48.7301    1.0000 </r>
       <r>  -48.7182    1.0000 </r>
       <r>  -48.6940    1.0000 </r>
       <r>  -48.6807    1.0000 </r>
       <r>  -44.7780    1.0000 </r>
       <r>  -44.7731    1.0000 </r>
       <r>  -44.7322    1.0000 </r>
       <r>  -44.7156    1.0000 </r>
       <r>  -44.5931    1.0000 </r>
       <r>  -44.5743    1.0000 </r>
       <r>  -16.6462    1.0000 </r>
       <r>  -16.0480    1.0000 </r>
       <r>  -15.7403    1.0000 </r>
       <r>  -14.9987    1.0000 </r>
       <r>  -14.7436    1.0000 </r>
       <r>  -14.6687    1.0000 </r>
       <r>  -14.6005    1.0000 </r>
       <r>  -14.4947    1.0000 </r>
       <r>   -3.2693    1.0000 </r>
       <r>   -2.7537    1.0000 </r>
       <r>   -2.6187    1.0000 </r>
       <r>   -1.9117    1.0000 </r>
       <r>   -1.8503    1.0000 </r>
       <r>   -1.8434    1.0000 </r>
       <r>   -1.7614    1.0000 </r>
       <r>   -1.5660    1.0000 </r>
       <r>   -1.2436    1.0000 </r>
       <r>   -1.0666    1.0000 </r>
       <r>   -0.8055    1.0000 </r>
       <r>   -0.4288    1.0000 </r>
       <r>   -0.1995    1.0000 </r>
       <r>    0.0810    1.0000 </r>
       <r>    0.2988    1.0000 </r>
       <r>    0.4076    1.0000 </r>
       <r>    0.4454    1.0000 </r>
       <r>    0.8268    1.0000 </r>
       <r>    1.2834    1.0000 </r>
       <r>    1.3530    1.0000 </r>
       <r>    1.6844    1.0000 </r>
       <r>    1.7122    1.0000 </r>
       <r>    1.9218    1.0000 </r>
       <r>    2.3622    1.0000 </r>
       <r>    2.4290    1.0000 </r>
       <r>    2.6371    1.0000 </r>
       <r>    2.7104    1.0000 </r>
       <r>    3.0217    1.0000 </r>
       <r>    3.3080    1.0000 </r>
       <r>    3.4429    1.0000 </r>
       <r>    5.4993    0.0000 </r>
       <r>    5.5831    0.0000 </r>
       <r>    5.7736    0.0000 </r>
       <r>    5.9881    0.0000 </r>
       <r>    6.0255    0.0000 </r>
       <r>    6.1280    0.0000 </r>
       <r>    6.8068    0.0000 </r>
       <r>    6.8460    0.0000 </r>
       <r>    7.1951    0.0000 </r>
       <r>    7.2605    0.0000 </r>
      </set>
      <set comment="kpoint 3">
       <r>  -48.7748    1.0000 </r>
       <r>  -48.7716    1.0000 </r>
       <r>  -48.7260    1.0000 </r>
       <r>  -48.7159    1.0000 </r>
       <r>  -48.6895    1.0000 </r>
       <r>  -48.6783    1.0000 </r>
       <r>  -44.8123    1.0000 </r>
       <r>  -44.8081    1.0000 </r>
       <r>  -44.7263    1.0000 </r>
       <r>  -44.7121    1.0000 </r>
       <r>  -44.5875    1.0000 </r>
       <r>  -44.5715    1.0000 </r>
       <r>  -16.3740    1.0000 </r>
       <r>  -15.8503    1.0000 </r>
       <r>  -15.5428    1.0000 </r>
       <r>  -14.9312    1.0000 </r>
       <r>  -14.7698    1.0000 </r>
       <r>  -14.7064    1.0000 </r>
       <r>  -14.6718    1.0000 </r>
       <r>  -14.5392    1.0000 </r>
       <r>   -2.8928    1.0000 </r>
       <r>   -2.4829    1.0000 </r>
       <r>   -2.3572    1.0000 </r>
       <r>   -2.0753    1.0000 </r>
       <r>   -1.8998    1.0000 </r>
       <r>   -1.8185    1.0000 </r>
       <r>   -1.6079    1.0000 </r>
       <r>   -1.6005    1.0000 </r>
       <r>   -1.3862    1.0000 </r>
       <r>   -0.8929    1.0000 </r>
       <r>   -0.8215    1.0000 </r>
       <r>   -0.6672    1.0000 </r>
       <r>   -0.4374    1.0000 </r>
       <r>   -0.2856    1.0000 </r>
       <r>    0.0473    1.0000 </r>
       <r>    0.3832    1.0000 </r>
       <r>    0.6741    1.0000 </r>
       <r>    0.7511    1.0000 </r>
       <r>    0.9121    1.0000 </r>
       <r>    1.1990    1.0000 </r>
       <r>    1.2090    1.0000 </r>
       <r>    1.5211    1.0000 </r>
       <r>    1.7945    1.0000 </r>
       <r>    2.2878    1.0000 </r>
       <r>    2.3328    1.0000 </r>
       <r>    2.7188    1.0000 </r>
       <r>    2.7793    1.0000 </r>
       <r>    2.7827    1.0000 </r>
       <r>    3.2454    1.0000 </r>
       <r>    3.4289    1.0000 </r>
       <r>    5.6010    0.0000 </r>
       <r>    5.6794    0.0000 </r>
       <r>    5.8677    0.0000 </r>
       <r>    5.9502    0.0000 </r>
       <r>    6.1661    0.0000 </r>
       <r>    6.2049    0.0000 </r>
       <r>    6.5664    0.0000 </r>
       <r>    6.5927    0.0000 </r>
       <r>    7.0869    0.0000 </r>
       <r>    7.1361    0.0000 </r>
      </set>
      <set comment="kpoint 4">
       <r>  -48.8081    1.0000 </r>
       <r>  -48.8057    1.0000 </r>
       <r>  -48.7208    1.0000 </r>
       <r>  -48.7135    1.0000 </r>
       <r>  -48.6836    1.0000 </r>
       <r>  -48.6756    1.0000 </r>
       <r>  -44.8543    1.0000 </r>
       <r>  -44.8513    1.0000 </r>
       <r>  -44.7186    1.0000 </r>
       <r>  -44.7083    1.0000 </r>
       <r>  -44.5801    1.0000 </r>
       <r>  -44.5684    1.0000 </r>
       <r>  -15.9816    1.0000 </r>
       <r>  -15.5838    1.0000 </r>
       <r>  -15.2828    1.0000 </r>
       <r>  -14.8962    1.0000 </r>
       <r>  -14.8160    1.0000 </r>
       <r>  -14.7649    1.0000 </r>
       <r>  -14.7557    1.0000 </r>
       <r>  -14.5867    1.0000 </r>
       <r>   -2.4869    1.0000 </r>
       <r>   -2.4387    1.0000 </r>
       <r>   -2.1141    1.0000 </r>
       <r>   -2.0390    1.0000 </r>
       <r>   -2.0333    1.0000 </r>
       <r>   -1.8371    1.0000 </r>
       <r>   -1.6462    1.0000 </r>
       <r>   -1.5433    1.0000 </r>
       <r>   -1.2287    1.0000 </r>
       <r>   -1.1428    1.0000 </r>
       <r>   -1.0539    1.0000 </r>
       <r>   -0.6238    1.0000 </r>
       <r>   -0.4676    1.0000 </r>
       <r>   -0.4062    1.0000 </r>
       <r>   -0.0117    1.0000 </r>
       <r>    0.3182    1.0000 </r>
       <r>    0.4747    1.0000 </r>
       <r>    0.6259    1.0000 </r>
       <r>    0.8888    1.0000 </r>
       <r>    1.0029    1.0000 </r>
       <r>    1.0382    1.0000 </r>
       <r>    1.4733    1.0000 </r>
       <r>    1.5072    1.0000 </r>
       <r>    2.1773    1.0000 </r>
       <r>    2.2027    1.0000 </r>
       <r>    2.3432    1.0000 </r>
       <r>    2.5279    1.0000 </r>
       <r>    2.6310    1.0000 </r>
       <r>    3.2187    1.0000 </r>
       <r>    3.4350    1.0000 </r>
       <r>    5.3600    0.0000 </r>
       <r>    5.4424    0.0000 </r>
       <r>    6.0007    0.0000 </r>
       <r>    6.0135    0.0000 </r>
       <r>    6.1993    0.0000 </r>
       <r>    6.2240    0.0000 </r>
       <r>    6.5350    0.0000 </r>
       <r>    6.7147    0.0000 </r>
       <r>    6.9944    0.0000 </r>
       <r>    7.0560    0.0000 </r>
      </set>
      <set comment="kpoint 5">
       <r>  -48.8346    1.0000 </r>
       <r>  -48.8334    1.0000 </r>
       <r>  -48.7160    1.0000 </r>
       <r>  -48.7123    1.0000 </r>
       <r>  -48.6781    1.0000 </r>
       <r>  -48.6739    1.0000 </r>
       <r>  -44.8878    1.0000 </r>
       <r>  -44.8862    1.0000 </r>
       <r>  -44.7117    1.0000 </r>
       <r>  -44.7062    1.0000 </r>
       <r>  -44.5730    1.0000 </r>
       <r>  -44.5668    1.0000 </r>
       <r>  -15.5555    1.0000 </r>
       <r>  -15.3210    1.0000 </r>
       <r>  -15.0581    1.0000 </r>
       <r>  -14.9709    1.0000 </r>
       <r>  -14.9233    1.0000 </r>
       <r>  -14.8291    1.0000 </r>
       <r>  -14.7661    1.0000 </r>
       <r>  -14.6366    1.0000 </r>
       <r>   -2.8147    1.0000 </r>
       <r>   -2.6530    1.0000 </r>
       <r>   -2.1137    1.0000 </r>
       <r>   -1.9478    1.0000 </r>
       <r>   -1.8826    1.0000 </r>
       <r>   -1.8341    1.0000 </r>
       <r>   -1.5016    1.0000 </r>
       <r>   -1.3460    1.0000 </r>
       <r>   -1.2917    1.0000 </r>
       <r>   -1.0617    1.0000 </r>
       <r>   -0.8986    1.0000 </r>
       <r>   -0.5962    1.0000 </r>
       <r>   -0.5023    1.0000 </r>
       <r>   -0.1479    1.0000 </r>
       <r>   -0.0438    1.0000 </r>
       <r>    0.3466    1.0000 </r>
       <r>    0.4880    1.0000 </r>
       <r>    0.5255    1.0000 </r>
       <r>    0.7337    1.0000 </r>
       <r>    0.9936    1.0000 </r>
       <r>    1.0970    1.0000 </r>
       <r>    1.1325    1.0000 </r>
       <r>    1.4743    1.0000 </r>
       <r>    1.8564    1.0000 </r>
       <r>    1.9060    1.0000 </r>
       <r>    2.0160    1.0000 </r>
       <r>    2.2025    1.0000 </r>
       <r>    2.2176    1.0000 </r>
       <r>    3.3332    1.0000 </r>
       <r>    3.4465    1.0000 </r>
       <r>    5.1385    0.0000 </r>
       <r>    5.2414    0.0000 </r>
       <r>    5.9842    0.0000 </r>
       <r>    6.0825    0.0000 </r>
       <r>    6.1246    0.0000 </r>
       <r>    6.3490    0.0000 </r>
       <r>    6.5522    0.0000 </r>
       <r>    6.6799    0.0000 </r>
       <r>    7.0888    0.0000 </r>
       <r>    7.1172    0.0000 </r>
      </set>
      <set comment="kpoint 6">
       <r>  -48.8444    1.0000 </r>
       <r>  -48.8444    1.0000 </r>
       <r>  -48.7130    1.0000 </r>
       <r>  -48.7130    1.0000 </r>
       <r>  -48.6746    1.0000 </r>
       <r>  -48.6746    1.0000 </r>
       <r>  -44.9001    1.0000 </r>
       <r>  -44.9001    1.0000 </r>
       <r>  -44.7072    1.0000 </r>
       <r>  -44.7072    1.0000 </r>
       <r>  -44.5683    1.0000 </r>
       <r>  -44.5682    1.0000 </r>
       <r>  -15.1950    1.0000 </r>
       <r>  -15.1949    1.0000 </r>
       <r>  -15.1119    1.0000 </r>
       <r>  -15.1118    1.0000 </r>
       <r>  -14.8954    1.0000 </r>
       <r>  -14.8953    1.0000 </r>
       <r>  -14.7082    1.0000 </r>
       <r>  -14.7082    1.0000 </r>
       <r>   -2.9186    1.0000 </r>
       <r>   -2.9186    1.0000 </r>
       <r>   -2.0611    1.0000 </r>
       <r>   -2.0611    1.0000 </r>
       <r>   -1.7940    1.0000 </r>
       <r>   -1.7940    1.0000 </r>
       <r>   -1.3423    1.0000 </r>
       <r>   -1.3423    1.0000 </r>
       <r>   -1.1069    1.0000 </r>
       <r>   -1.1069    1.0000 </r>
       <r>   -0.7465    1.0000 </r>
       <r>   -0.7465    1.0000 </r>
       <r>   -0.1918    1.0000 </r>
       <r>   -0.1918    1.0000 </r>
       <r>    0.1475    1.0000 </r>
       <r>    0.1475    1.0000 </r>
       <r>    0.4610    1.0000 </r>
       <r>    0.4610    1.0000 </r>
       <r>    0.9108    1.0000 </r>
       <r>    0.9109    1.0000 </r>
       <r>    1.2565    1.0000 </r>
       <r>    1.2565    1.0000 </r>
       <r>    1.4151    1.0000 </r>
       <r>    1.4152    1.0000 </r>
       <r>    1.7310    1.0000 </r>
       <r>    1.7310    1.0000 </r>
       <r>    2.0634    1.0000 </r>
       <r>    2.0634    1.0000 </r>
       <r>    3.4233    1.0000 </r>
       <r>    3.4233    1.0000 </r>
       <r>    5.1261    0.0000 </r>
       <r>    5.1261    0.0000 </r>
       <r>    6.0212    0.0000 </r>
       <r>    6.0212    0.0000 </r>
       <r>    6.2022    0.0000 </r>
       <r>    6.2023    0.0000 </r>
       <r>    6.6201    0.0000 </r>
       <r>    6.6202    0.0000 </r>
       <r>    7.2125    0.0000 </r>
       <r>    7.2125    0.0000 </r>
      </set>
      <set comment="kpoint 7">
       <r>  -48.7370    1.0000 </r>
       <r>  -48.7335    1.0000 </r>
       <r>  -48.7313    1.0000 </r>
       <r>  -48.7203    1.0000 </r>
       <r>  -48.6946    1.0000 </r>
       <r>  -48.6822    1.0000 </r>
       <r>  -44.7645    1.0000 </r>
       <r>  -44.7599    1.0000 </r>
       <r>  -44.7337    1.0000 </r>
       <r>  -44.7181    1.0000 </r>
       <r>  -44.5941    1.0000 </r>
       <r>  -44.5763    1.0000 </r>
       <r>  -16.6940    1.0000 </r>
       <r>  -16.1214    1.0000 </r>
       <r>  -15.7724    1.0000 </r>
       <r>  -15.0586    1.0000 </r>
       <r>  -14.7365    1.0000 </r>
       <r>  -14.6812    1.0000 </r>
       <r>  -14.5980    1.0000 </r>
       <r>  -14.5172    1.0000 </r>
       <r>   -3.3877    1.0000 </r>
       <r>   -2.8936    1.0000 </r>
       <r>   -2.5922    1.0000 </r>
       <r>   -2.0297    1.0000 </r>
       <r>   -1.9720    1.0000 </r>
       <r>   -1.7296    1.0000 </r>
       <r>   -1.6477    1.0000 </r>
       <r>   -1.5672    1.0000 </r>
       <r>   -1.1040    1.0000 </r>
       <r>   -1.0109    1.0000 </r>
       <r>   -0.9439    1.0000 </r>
       <r>   -0.4528    1.0000 </r>
       <r>   -0.2289    1.0000 </r>
       <r>    0.2576    1.0000 </r>
       <r>    0.3671    1.0000 </r>
       <r>    0.4652    1.0000 </r>
       <r>    0.6828    1.0000 </r>
       <r>    1.0129    1.0000 </r>
       <r>    1.2979    1.0000 </r>
       <r>    1.4285    1.0000 </r>
       <r>    1.6945    1.0000 </r>
       <r>    2.0594    1.0000 </r>
       <r>    2.0815    1.0000 </r>
       <r>    2.3199    1.0000 </r>
       <r>    2.4863    1.0000 </r>
       <r>    2.5298    1.0000 </r>
       <r>    2.5414    1.0000 </r>
       <r>    2.9027    1.0000 </r>
       <r>    3.2256    1.0000 </r>
       <r>    3.4582    1.0000 </r>
       <r>    5.4493    0.0000 </r>
       <r>    5.4997    0.0000 </r>
       <r>    5.7296    0.0000 </r>
       <r>    5.8445    0.0000 </r>
       <r>    5.9119    0.0000 </r>
       <r>    6.2137    0.0000 </r>
       <r>    7.0497    0.0000 </r>
       <r>    7.0879    0.0000 </r>
       <r>    7.2097    0.0000 </r>
       <r>    7.2998    0.0000 </r>
      </set>
      <set comment="kpoint 8">
       <r>  -48.7475    1.0000 </r>
       <r>  -48.7442    1.0000 </r>
       <r>  -48.7297    1.0000 </r>
       <r>  -48.7192    1.0000 </r>
       <r>  -48.6930    1.0000 </r>
       <r>  -48.6812    1.0000 </r>
       <r>  -44.7778    1.0000 </r>
       <r>  -44.7733    1.0000 </r>
       <r>  -44.7315    1.0000 </r>
       <r>  -44.7166    1.0000 </r>
       <r>  -44.5921    1.0000 </r>
       <r>  -44.5751    1.0000 </r>
       <r>  -16.5984    1.0000 </r>
       <r>  -16.0480    1.0000 </r>
       <r>  -15.7009    1.0000 </r>
       <r>  -15.0241    1.0000 </r>
       <r>  -14.7471    1.0000 </r>
       <r>  -14.6947    1.0000 </r>
       <r>  -14.6217    1.0000 </r>
       <r>  -14.5339    1.0000 </r>
       <r>   -3.2520    1.0000 </r>
       <r>   -2.7856    1.0000 </r>
       <r>   -2.5082    1.0000 </r>
       <r>   -1.9810    1.0000 </r>
       <r>   -1.9305    1.0000 </r>
       <r>   -1.8526    1.0000 </r>
       <r>   -1.7495    1.0000 </r>
       <r>   -1.5396    1.0000 </r>
       <r>   -1.2204    1.0000 </r>
       <r>   -1.0630    1.0000 </r>
       <r>   -0.7463    1.0000 </r>
       <r>   -0.3801    1.0000 </r>
       <r>   -0.1182    1.0000 </r>
       <r>    0.0351    1.0000 </r>
       <r>    0.2133    1.0000 </r>
       <r>    0.5239    1.0000 </r>
       <r>    0.5335    1.0000 </r>
       <r>    0.8450    1.0000 </r>
       <r>    1.2598    1.0000 </r>
       <r>    1.3937    1.0000 </r>
       <r>    1.6700    1.0000 </r>
       <r>    1.6906    1.0000 </r>
       <r>    1.8851    1.0000 </r>
       <r>    2.3482    1.0000 </r>
       <r>    2.3718    1.0000 </r>
       <r>    2.6112    1.0000 </r>
       <r>    2.6792    1.0000 </r>
       <r>    2.9079    1.0000 </r>
       <r>    3.2522    1.0000 </r>
       <r>    3.4419    1.0000 </r>
       <r>    5.5136    0.0000 </r>
       <r>    5.5822    0.0000 </r>
       <r>    5.7950    0.0000 </r>
       <r>    5.9799    0.0000 </r>
       <r>    5.9885    0.0000 </r>
       <r>    6.2198    0.0000 </r>
       <r>    6.7682    0.0000 </r>
       <r>    6.8451    0.0000 </r>
       <r>    7.2287    0.0000 </r>
       <r>    7.3043    0.0000 </r>
      </set>
      <set comment="kpoint 9">
       <r>  -48.7747    1.0000 </r>
       <r>  -48.7718    1.0000 </r>
       <r>  -48.7257    1.0000 </r>
       <r>  -48.7167    1.0000 </r>
       <r>  -48.6887    1.0000 </r>
       <r>  -48.6788    1.0000 </r>
       <r>  -44.8121    1.0000 </r>
       <r>  -44.8083    1.0000 </r>
       <r>  -44.7257    1.0000 </r>
       <r>  -44.7129    1.0000 </r>
       <r>  -44.5866    1.0000 </r>
       <r>  -44.5722    1.0000 </r>
       <r>  -16.3305    1.0000 </r>
       <r>  -15.8485    1.0000 </r>
       <r>  -15.5081    1.0000 </r>
       <r>  -14.9467    1.0000 </r>
       <r>  -14.7757    1.0000 </r>
       <r>  -14.7338    1.0000 </r>
       <r>  -14.6866    1.0000 </r>
       <r>  -14.5738    1.0000 </r>
       <r>   -2.8829    1.0000 </r>
       <r>   -2.5246    1.0000 </r>
       <r>   -2.3140    1.0000 </r>
       <r>   -2.1075    1.0000 </r>
       <r>   -1.9341    1.0000 </r>
       <r>   -1.8689    1.0000 </r>
       <r>   -1.6824    1.0000 </r>
       <r>   -1.6013    1.0000 </r>
       <r>   -1.3148    1.0000 </r>
       <r>   -0.9489    1.0000 </r>
       <r>   -0.6634    1.0000 </r>
       <r>   -0.6503    1.0000 </r>
       <r>   -0.4440    1.0000 </r>
       <r>   -0.0929    1.0000 </r>
       <r>    0.0209    1.0000 </r>
       <r>    0.4103    1.0000 </r>
       <r>    0.6504    1.0000 </r>
       <r>    0.6821    1.0000 </r>
       <r>    0.9569    1.0000 </r>
       <r>    1.1937    1.0000 </r>
       <r>    1.1992    1.0000 </r>
       <r>    1.5822    1.0000 </r>
       <r>    1.7915    1.0000 </r>
       <r>    2.2667    1.0000 </r>
       <r>    2.2962    1.0000 </r>
       <r>    2.6771    1.0000 </r>
       <r>    2.7458    1.0000 </r>
       <r>    2.7588    1.0000 </r>
       <r>    3.2327    1.0000 </r>
       <r>    3.4082    1.0000 </r>
       <r>    5.5912    0.0000 </r>
       <r>    5.6455    0.0000 </r>
       <r>    5.9143    0.0000 </r>
       <r>    6.0146    0.0000 </r>
       <r>    6.1623    0.0000 </r>
       <r>    6.1860    0.0000 </r>
       <r>    6.5377    0.0000 </r>
       <r>    6.5904    0.0000 </r>
       <r>    7.0676    0.0000 </r>
       <r>    7.1258    0.0000 </r>
      </set>
      <set comment="kpoint 10">
       <r>  -48.8079    1.0000 </r>
       <r>  -48.8058    1.0000 </r>
       <r>  -48.7205    1.0000 </r>
       <r>  -48.7140    1.0000 </r>
       <r>  -48.6831    1.0000 </r>
       <r>  -48.6759    1.0000 </r>
       <r>  -44.8542    1.0000 </r>
       <r>  -44.8514    1.0000 </r>
       <r>  -44.7182    1.0000 </r>
       <r>  -44.7089    1.0000 </r>
       <r>  -44.5795    1.0000 </r>
       <r>  -44.5689    1.0000 </r>
       <r>  -15.9462    1.0000 </r>
       <r>  -15.5799    1.0000 </r>
       <r>  -15.2568    1.0000 </r>
       <r>  -14.8993    1.0000 </r>
       <r>  -14.8288    1.0000 </r>
       <r>  -14.7924    1.0000 </r>
       <r>  -14.7577    1.0000 </r>
       <r>  -14.6131    1.0000 </r>
       <r>   -2.5291    1.0000 </r>
       <r>   -2.4610    1.0000 </r>
       <r>   -2.2022    1.0000 </r>
       <r>   -2.0676    1.0000 </r>
       <r>   -2.0044    1.0000 </r>
       <r>   -1.8826    1.0000 </r>
       <r>   -1.7051    1.0000 </r>
       <r>   -1.5415    1.0000 </r>
       <r>   -1.1624    1.0000 </r>
       <r>   -1.1497    1.0000 </r>
       <r>   -0.9612    1.0000 </r>
       <r>   -0.6478    1.0000 </r>
       <r>   -0.4641    1.0000 </r>
       <r>   -0.3578    1.0000 </r>
       <r>    0.0682    1.0000 </r>
       <r>    0.3181    1.0000 </r>
       <r>    0.5454    1.0000 </r>
       <r>    0.5677    1.0000 </r>
       <r>    0.7896    1.0000 </r>
       <r>    1.0413    1.0000 </r>
       <r>    1.0746    1.0000 </r>
       <r>    1.5301    1.0000 </r>
       <r>    1.5804    1.0000 </r>
       <r>    2.1321    1.0000 </r>
       <r>    2.2193    1.0000 </r>
       <r>    2.3378    1.0000 </r>
       <r>    2.5216    1.0000 </r>
       <r>    2.6780    1.0000 </r>
       <r>    3.1971    1.0000 </r>
       <r>    3.3924    1.0000 </r>
       <r>    5.3725    0.0000 </r>
       <r>    5.4567    0.0000 </r>
       <r>    5.9998    0.0000 </r>
       <r>    6.0226    0.0000 </r>
       <r>    6.2102    0.0000 </r>
       <r>    6.2281    0.0000 </r>
       <r>    6.5420    0.0000 </r>
       <r>    6.6485    0.0000 </r>
       <r>    6.9816    0.0000 </r>
       <r>    7.0960    0.0000 </r>
      </set>
      <set comment="kpoint 11">
       <r>  -48.8346    1.0000 </r>
       <r>  -48.8335    1.0000 </r>
       <r>  -48.7159    1.0000 </r>
       <r>  -48.7125    1.0000 </r>
       <r>  -48.6779    1.0000 </r>
       <r>  -48.6741    1.0000 </r>
       <r>  -44.8877    1.0000 </r>
       <r>  -44.8863    1.0000 </r>
       <r>  -44.7114    1.0000 </r>
       <r>  -44.7065    1.0000 </r>
       <r>  -44.5727    1.0000 </r>
       <r>  -44.5671    1.0000 </r>
       <r>  -15.5324    1.0000 </r>
       <r>  -15.3170    1.0000 </r>
       <r>  -15.0469    1.0000 </r>
       <r>  -14.9726    1.0000 </r>
       <r>  -14.9287    1.0000 </r>
       <r>  -14.8421    1.0000 </r>
       <r>  -14.7658    1.0000 </r>
       <r>  -14.6503    1.0000 </r>
       <r>   -2.8373    1.0000 </r>
       <r>   -2.6953    1.0000 </r>
       <r>   -2.1146    1.0000 </r>
       <r>   -1.9973    1.0000 </r>
       <r>   -1.9615    1.0000 </r>
       <r>   -1.8489    1.0000 </r>
       <r>   -1.5556    1.0000 </r>
       <r>   -1.3581    1.0000 </r>
       <r>   -1.2326    1.0000 </r>
       <r>   -1.2045    1.0000 </r>
       <r>   -0.8179    1.0000 </r>
       <r>   -0.6547    1.0000 </r>
       <r>   -0.4070    1.0000 </r>
       <r>   -0.0957    1.0000 </r>
       <r>   -0.0147    1.0000 </r>
       <r>    0.3359    1.0000 </r>
       <r>    0.4224    1.0000 </r>
       <r>    0.5582    1.0000 </r>
       <r>    0.7024    1.0000 </r>
       <r>    0.9658    1.0000 </r>
       <r>    1.1975    1.0000 </r>
       <r>    1.2369    1.0000 </r>
       <r>    1.5709    1.0000 </r>
       <r>    1.8526    1.0000 </r>
       <r>    1.9424    1.0000 </r>
       <r>    2.0247    1.0000 </r>
       <r>    2.1960    1.0000 </r>
       <r>    2.3264    1.0000 </r>
       <r>    3.3018    1.0000 </r>
       <r>    3.4010    1.0000 </r>
       <r>    5.1652    0.0000 </r>
       <r>    5.2688    0.0000 </r>
       <r>    5.9615    0.0000 </r>
       <r>    6.1026    0.0000 </r>
       <r>    6.1339    0.0000 </r>
       <r>    6.3414    0.0000 </r>
       <r>    6.5621    0.0000 </r>
       <r>    6.6333    0.0000 </r>
       <r>    7.0957    0.0000 </r>
       <r>    7.1358    0.0000 </r>
      </set>
      <set comment="kpoint 12">
       <r>  -48.8444    1.0000 </r>
       <r>  -48.8444    1.0000 </r>
       <r>  -48.7131    1.0000 </r>
       <r>  -48.7131    1.0000 </r>
       <r>  -48.6746    1.0000 </r>
       <r>  -48.6746    1.0000 </r>
       <r>  -44.9001    1.0000 </r>
       <r>  -44.9000    1.0000 </r>
       <r>  -44.7073    1.0000 </r>
       <r>  -44.7072    1.0000 </r>
       <r>  -44.5683    1.0000 </r>
       <r>  -44.5683    1.0000 </r>
       <r>  -15.1871    1.0000 </r>
       <r>  -15.1871    1.0000 </r>
       <r>  -15.1117    1.0000 </r>
       <r>  -15.1116    1.0000 </r>
       <r>  -14.8962    1.0000 </r>
       <r>  -14.8962    1.0000 </r>
       <r>  -14.7111    1.0000 </r>
       <r>  -14.7111    1.0000 </r>
       <r>   -2.9396    1.0000 </r>
       <r>   -2.9396    1.0000 </r>
       <r>   -2.0826    1.0000 </r>
       <r>   -2.0826    1.0000 </r>
       <r>   -1.8623    1.0000 </r>
       <r>   -1.8622    1.0000 </r>
       <r>   -1.3819    1.0000 </r>
       <r>   -1.3819    1.0000 </r>
       <r>   -1.1538    1.0000 </r>
       <r>   -1.1538    1.0000 </r>
       <r>   -0.7235    1.0000 </r>
       <r>   -0.7235    1.0000 </r>
       <r>   -0.1564    1.0000 </r>
       <r>   -0.1564    1.0000 </r>
       <r>    0.1449    1.0000 </r>
       <r>    0.1450    1.0000 </r>
       <r>    0.4662    1.0000 </r>
       <r>    0.4663    1.0000 </r>
       <r>    0.8939    1.0000 </r>
       <r>    0.8940    1.0000 </r>
       <r>    1.3507    1.0000 </r>
       <r>    1.3507    1.0000 </r>
       <r>    1.4399    1.0000 </r>
       <r>    1.4399    1.0000 </r>
       <r>    1.8420    1.0000 </r>
       <r>    1.8420    1.0000 </r>
       <r>    2.0842    1.0000 </r>
       <r>    2.0843    1.0000 </r>
       <r>    3.3863    1.0000 </r>
       <r>    3.3863    1.0000 </r>
       <r>    5.1529    0.0000 </r>
       <r>    5.1529    0.0000 </r>
       <r>    6.0110    0.0000 </r>
       <r>    6.0110    0.0000 </r>
       <r>    6.2082    0.0000 </r>
       <r>    6.2083    0.0000 </r>
       <r>    6.6267    0.0000 </r>
       <r>    6.6267    0.0000 </r>
       <r>    7.1880    0.0000 </r>
       <r>    7.1881    0.0000 </r>
      </set>
      <set comment="kpoint 13">
       <r>  -48.8346    1.0000 </r>
       <r>  -48.8335    1.0000 </r>
       <r>  -48.7159    1.0000 </r>
       <r>  -48.7125    1.0000 </r>
       <r>  -48.6779    1.0000 </r>
       <r>  -48.6741    1.0000 </r>
       <r>  -44.8877    1.0000 </r>
       <r>  -44.8863    1.0000 </r>
       <r>  -44.7114    1.0000 </r>
       <r>  -44.7065    1.0000 </r>
       <r>  -44.5727    1.0000 </r>
       <r>  -44.5671    1.0000 </r>
       <r>  -15.5324    1.0000 </r>
       <r>  -15.3170    1.0000 </r>
       <r>  -15.0469    1.0000 </r>
       <r>  -14.9726    1.0000 </r>
       <r>  -14.9287    1.0000 </r>
       <r>  -14.8421    1.0000 </r>
       <r>  -14.7658    1.0000 </r>
       <r>  -14.6503    1.0000 </r>
       <r>   -2.8373    1.0000 </r>
       <r>   -2.6953    1.0000 </r>
       <r>   -2.1146    1.0000 </r>
       <r>   -1.9973    1.0000 </r>
       <r>   -1.9615    1.0000 </r>
       <r>   -1.8489    1.0000 </r>
       <r>   -1.5556    1.0000 </r>
       <r>   -1.3581    1.0000 </r>
       <r>   -1.2326    1.0000 </r>
       <r>   -1.2046    1.0000 </r>
       <r>   -0.8179    1.0000 </r>
       <r>   -0.6547    1.0000 </r>
       <r>   -0.4070    1.0000 </r>
       <r>   -0.0957    1.0000 </r>
       <r>   -0.0147    1.0000 </r>
       <r>    0.3359    1.0000 </r>
       <r>    0.4224    1.0000 </r>
       <r>    0.5582    1.0000 </r>
       <r>    0.7024    1.0000 </r>
       <r>    0.9658    1.0000 </r>
       <r>    1.1975    1.0000 </r>
       <r>    1.2369    1.0000 </r>
       <r>    1.5709    1.0000 </r>
       <r>    1.8526    1.0000 </r>
       <r>    1.9424    1.0000 </r>
       <r>    2.0247    1.0000 </r>
       <r>    2.1960    1.0000 </r>
       <r>    2.3264    1.0000 </r>
       <r>    3.3018    1.0000 </r>
       <r>    3.4010    1.0000 </r>
       <r>    5.1652    0.0000 </r>
       <r>    5.2688    0.0000 </r>
       <r>    5.9615    0.0000 </r>
       <r>    6.1026    0.0000 </r>
       <r>    6.1339    0.0000 </r>
       <r>    6.3414    0.0000 </r>
       <r>    6.5620    0.0000 </r>
       <r>    6.6333    0.0000 </r>
       <r>    7.0957    0.0000 </r>
       <r>    7.1358    0.0000 </r>
      </set>
      <set comment="kpoint 14">
       <r>  -48.8079    1.0000 </r>
       <r>  -48.8058    1.0000 </r>
       <r>  -48.7205    1.0000 </r>
       <r>  -48.7140    1.0000 </r>
       <r>  -48.6831    1.0000 </r>
       <r>  -48.6759    1.0000 </r>
       <r>  -44.8542    1.0000 </r>
       <r>  -44.8514    1.0000 </r>
       <r>  -44.7182    1.0000 </r>
       <r>  -44.7089    1.0000 </r>
       <r>  -44.5795    1.0000 </r>
       <r>  -44.5689    1.0000 </r>
       <r>  -15.9462    1.0000 </r>
       <r>  -15.5799    1.0000 </r>
       <r>  -15.2568    1.0000 </r>
       <r>  -14.8993    1.0000 </r>
       <r>  -14.8288    1.0000 </r>
       <r>  -14.7924    1.0000 </r>
       <r>  -14.7577    1.0000 </r>
       <r>  -14.6131    1.0000 </r>
       <r>   -2.5291    1.0000 </r>
       <r>   -2.4610    1.0000 </r>
       <r>   -2.2022    1.0000 </r>
       <r>   -2.0676    1.0000 </r>
       <r>   -2.0045    1.0000 </r>
       <r>   -1.8826    1.0000 </r>
       <r>   -1.7051    1.0000 </r>
       <r>   -1.5415    1.0000 </r>
       <r>   -1.1624    1.0000 </r>
       <r>   -1.1497    1.0000 </r>
       <r>   -0.9612    1.0000 </r>
       <r>   -0.6478    1.0000 </r>
       <r>   -0.4641    1.0000 </r>
       <r>   -0.3578    1.0000 </r>
       <r>    0.0682    1.0000 </r>
       <r>    0.3181    1.0000 </r>
       <r>    0.5454    1.0000 </r>
       <r>    0.5677    1.0000 </r>
       <r>    0.7896    1.0000 </r>
       <r>    1.0413    1.0000 </r>
       <r>    1.0745    1.0000 </r>
       <r>    1.5301    1.0000 </r>
       <r>    1.5804    1.0000 </r>
       <r>    2.1321    1.0000 </r>
       <r>    2.2193    1.0000 </r>
       <r>    2.3378    1.0000 </r>
       <r>    2.5216    1.0000 </r>
       <r>    2.6780    1.0000 </r>
       <r>    3.1971    1.0000 </r>
       <r>    3.3924    1.0000 </r>
       <r>    5.3725    0.0000 </r>
       <r>    5.4567    0.0000 </r>
       <r>    5.9999    0.0000 </r>
       <r>    6.0226    0.0000 </r>
       <r>    6.2102    0.0000 </r>
       <r>    6.2282    0.0000 </r>
       <r>    6.5420    0.0000 </r>
       <r>    6.6485    0.0000 </r>
       <r>    6.9816    0.0000 </r>
       <r>    7.0960    0.0000 </r>
      </set>
      <set comment="kpoint 15">
       <r>  -48.7747    1.0000 </r>
       <r>  -48.7718    1.0000 </r>
       <r>  -48.7257    1.0000 </r>
       <r>  -48.7167    1.0000 </r>
       <r>  -48.6887    1.0000 </r>
       <r>  -48.6788    1.0000 </r>
       <r>  -44.8121    1.0000 </r>
       <r>  -44.8083    1.0000 </r>
       <r>  -44.7257    1.0000 </r>
       <r>  -44.7129    1.0000 </r>
       <r>  -44.5866    1.0000 </r>
       <r>  -44.5722    1.0000 </r>
       <r>  -16.3305    1.0000 </r>
       <r>  -15.8485    1.0000 </r>
       <r>  -15.5081    1.0000 </r>
       <r>  -14.9467    1.0000 </r>
       <r>  -14.7757    1.0000 </r>
       <r>  -14.7338    1.0000 </r>
       <r>  -14.6866    1.0000 </r>
       <r>  -14.5738    1.0000 </r>
       <r>   -2.8829    1.0000 </r>
       <r>   -2.5246    1.0000 </r>
       <r>   -2.3140    1.0000 </r>
       <r>   -2.1075    1.0000 </r>
       <r>   -1.9341    1.0000 </r>
       <r>   -1.8689    1.0000 </r>
       <r>   -1.6824    1.0000 </r>
       <r>   -1.6013    1.0000 </r>
       <r>   -1.3148    1.0000 </r>
       <r>   -0.9489    1.0000 </r>
       <r>   -0.6634    1.0000 </r>
       <r>   -0.6503    1.0000 </r>
       <r>   -0.4440    1.0000 </r>
       <r>   -0.0929    1.0000 </r>
       <r>    0.0209    1.0000 </r>
       <r>    0.4104    1.0000 </r>
       <r>    0.6504    1.0000 </r>
       <r>    0.6821    1.0000 </r>
       <r>    0.9569    1.0000 </r>
       <r>    1.1937    1.0000 </r>
       <r>    1.1992    1.0000 </r>
       <r>    1.5821    1.0000 </r>
       <r>    1.7915    1.0000 </r>
       <r>    2.2667    1.0000 </r>
       <r>    2.2962    1.0000 </r>
       <r>    2.6771    1.0000 </r>
       <r>    2.7458    1.0000 </r>
       <r>    2.7588    1.0000 </r>
       <r>    3.2326    1.0000 </r>
       <r>    3.4082    1.0000 </r>
       <r>    5.5912    0.0000 </r>
       <r>    5.6455    0.0000 </r>
       <r>    5.9143    0.0000 </r>
       <r>    6.0146    0.0000 </r>
       <r>    6.1623    0.0000 </r>
       <r>    6.1861    0.0000 </r>
       <r>    6.5377    0.0000 </r>
       <r>    6.5904    0.0000 </r>
       <r>    7.0676    0.0000 </r>
       <r>    7.1258    0.0000 </r>
      </set>
      <set comment="kpoint 16">
       <r>  -48.7475    1.0000 </r>
       <r>  -48.7442    1.0000 </r>
       <r>  -48.7297    1.0000 </r>
       <r>  -48.7192    1.0000 </r>
       <r>  -48.6930    1.0000 </r>
       <r>  -48.6812    1.0000 </r>
       <r>  -44.7778    1.0000 </r>
       <r>  -44.7733    1.0000 </r>
       <r>  -44.7315    1.0000 </r>
       <r>  -44.7166    1.0000 </r>
       <r>  -44.5921    1.0000 </r>
       <r>  -44.5751    1.0000 </r>
       <r>  -16.5984    1.0000 </r>
       <r>  -16.0480    1.0000 </r>
       <r>  -15.7009    1.0000 </r>
       <r>  -15.0241    1.0000 </r>
       <r>  -14.7471    1.0000 </r>
       <r>  -14.6947    1.0000 </r>
       <r>  -14.6217    1.0000 </r>
       <r>  -14.5339    1.0000 </r>
       <r>   -3.2520    1.0000 </r>
       <r>   -2.7856    1.0000 </r>
       <r>   -2.5082    1.0000 </r>
       <r>   -1.9809    1.0000 </r>
       <r>   -1.9305    1.0000 </r>
       <r>   -1.8526    1.0000 </r>
       <r>   -1.7495    1.0000 </r>
       <r>   -1.5396    1.0000 </r>
       <r>   -1.2204    1.0000 </r>
       <r>   -1.0630    1.0000 </r>
       <r>   -0.7463    1.0000 </r>
       <r>   -0.3801    1.0000 </r>
       <r>   -0.1182    1.0000 </r>
       <r>    0.0351    1.0000 </r>
       <r>    0.2133    1.0000 </r>
       <r>    0.5239    1.0000 </r>
       <r>    0.5335    1.0000 </r>
       <r>    0.8450    1.0000 </r>
       <r>    1.2598    1.0000 </r>
       <r>    1.3937    1.0000 </r>
       <r>    1.6700    1.0000 </r>
       <r>    1.6906    1.0000 </r>
       <r>    1.8852    1.0000 </r>
       <r>    2.3483    1.0000 </r>
       <r>    2.3718    1.0000 </r>
       <r>    2.6112    1.0000 </r>
       <r>    2.6792    1.0000 </r>
       <r>    2.9079    1.0000 </r>
       <r>    3.2522    1.0000 </r>
       <r>    3.4419    1.0000 </r>
       <r>    5.5136    0.0000 </r>
       <r>    5.5822    0.0000 </r>
       <r>    5.7951    0.0000 </r>
       <r>    5.9799    0.0000 </r>
       <r>    5.9885    0.0000 </r>
       <r>    6.2197    0.0000 </r>
       <r>    6.7682    0.0000 </r>
       <r>    6.8451    0.0000 </r>
       <r>    7.2287    0.0000 </r>
       <r>    7.3044    0.0000 </r>
      </set>
      <set comment="kpoint 17">
       <r>  -48.7364    1.0000 </r>
       <r>  -48.7341    1.0000 </r>
       <r>  -48.7301    1.0000 </r>
       <r>  -48.7228    1.0000 </r>
       <r>  -48.6919    1.0000 </r>
       <r>  -48.6836    1.0000 </r>
       <r>  -44.7638    1.0000 </r>
       <r>  -44.7606    1.0000 </r>
       <r>  -44.7316    1.0000 </r>
       <r>  -44.7208    1.0000 </r>
       <r>  -44.5911    1.0000 </r>
       <r>  -44.5788    1.0000 </r>
       <r>  -16.5599    1.0000 </r>
       <r>  -16.1428    1.0000 </r>
       <r>  -15.6578    1.0000 </r>
       <r>  -15.1538    1.0000 </r>
       <r>  -14.7488    1.0000 </r>
       <r>  -14.7357    1.0000 </r>
       <r>  -14.6490    1.0000 </r>
       <r>  -14.6032    1.0000 </r>
       <r>   -3.3240    1.0000 </r>
       <r>   -2.9710    1.0000 </r>
       <r>   -2.3538    1.0000 </r>
       <r>   -2.1615    1.0000 </r>
       <r>   -1.9704    1.0000 </r>
       <r>   -1.7198    1.0000 </r>
       <r>   -1.6708    1.0000 </r>
       <r>   -1.5293    1.0000 </r>
       <r>   -1.0832    1.0000 </r>
       <r>   -0.9863    1.0000 </r>
       <r>   -0.8798    1.0000 </r>
       <r>   -0.4543    1.0000 </r>
       <r>    0.0064    1.0000 </r>
       <r>    0.2719    1.0000 </r>
       <r>    0.3797    1.0000 </r>
       <r>    0.4467    1.0000 </r>
       <r>    0.7450    1.0000 </r>
       <r>    1.2720    1.0000 </r>
       <r>    1.3351    1.0000 </r>
       <r>    1.3600    1.0000 </r>
       <r>    1.7031    1.0000 </r>
       <r>    1.9606    1.0000 </r>
       <r>    2.1140    1.0000 </r>
       <r>    2.1299    1.0000 </r>
       <r>    2.2271    1.0000 </r>
       <r>    2.4079    1.0000 </r>
       <r>    2.4559    1.0000 </r>
       <r>    2.7698    1.0000 </r>
       <r>    3.1221    1.0000 </r>
       <r>    3.4421    1.0000 </r>
       <r>    5.5204    0.0000 </r>
       <r>    5.5245    0.0000 </r>
       <r>    5.7566    0.0000 </r>
       <r>    5.8335    0.0000 </r>
       <r>    5.8780    0.0000 </r>
       <r>    6.3890    0.0000 </r>
       <r>    6.8876    0.0000 </r>
       <r>    7.0350    0.0000 </r>
       <r>    7.0697    0.0000 </r>
       <r>    7.2084    0.0000 </r>
      </set>
      <set comment="kpoint 18">
       <r>  -48.7470    1.0000 </r>
       <r>  -48.7446    1.0000 </r>
       <r>  -48.7286    1.0000 </r>
       <r>  -48.7216    1.0000 </r>
       <r>  -48.6905    1.0000 </r>
       <r>  -48.6826    1.0000 </r>
       <r>  -44.7771    1.0000 </r>
       <r>  -44.7740    1.0000 </r>
       <r>  -44.7295    1.0000 </r>
       <r>  -44.7192    1.0000 </r>
       <r>  -44.5892    1.0000 </r>
       <r>  -44.5776    1.0000 </r>
       <r>  -16.4680    1.0000 </r>
       <r>  -16.0668    1.0000 </r>
       <r>  -15.5904    1.0000 </r>
       <r>  -15.1110    1.0000 </r>
       <r>  -14.7616    1.0000 </r>
       <r>  -14.7498    1.0000 </r>
       <r>  -14.6673    1.0000 </r>
       <r>  -14.6172    1.0000 </r>
       <r>   -3.1950    1.0000 </r>
       <r>   -2.8651    1.0000 </r>
       <r>   -2.2993    1.0000 </r>
       <r>   -2.1191    1.0000 </r>
       <r>   -1.9628    1.0000 </r>
       <r>   -1.8785    1.0000 </r>
       <r>   -1.7676    1.0000 </r>
       <r>   -1.5140    1.0000 </r>
       <r>   -1.1793    1.0000 </r>
       <r>   -1.0371    1.0000 </r>
       <r>   -0.6599    1.0000 </r>
       <r>   -0.3193    1.0000 </r>
       <r>   -0.0051    1.0000 </r>
       <r>    0.0565    1.0000 </r>
       <r>    0.2642    1.0000 </r>
       <r>    0.5992    1.0000 </r>
       <r>    0.6510    1.0000 </r>
       <r>    0.9828    1.0000 </r>
       <r>    1.1846    1.0000 </r>
       <r>    1.4660    1.0000 </r>
       <r>    1.6420    1.0000 </r>
       <r>    1.6753    1.0000 </r>
       <r>    1.8177    1.0000 </r>
       <r>    2.1129    1.0000 </r>
       <r>    2.3130    1.0000 </r>
       <r>    2.3376    1.0000 </r>
       <r>    2.6384    1.0000 </r>
       <r>    2.8696    1.0000 </r>
       <r>    3.1633    1.0000 </r>
       <r>    3.4124    1.0000 </r>
       <r>    5.5786    0.0000 </r>
       <r>    5.5822    0.0000 </r>
       <r>    5.8238    0.0000 </r>
       <r>    5.9681    0.0000 </r>
       <r>    5.9689    0.0000 </r>
       <r>    6.3889    0.0000 </r>
       <r>    6.6866    0.0000 </r>
       <r>    6.8404    0.0000 </r>
       <r>    7.0410    0.0000 </r>
       <r>    7.1529    0.0000 </r>
      </set>
      <set comment="kpoint 19">
       <r>  -48.7742    1.0000 </r>
       <r>  -48.7722    1.0000 </r>
       <r>  -48.7247    1.0000 </r>
       <r>  -48.7186    1.0000 </r>
       <r>  -48.6867    1.0000 </r>
       <r>  -48.6800    1.0000 </r>
       <r>  -44.8115    1.0000 </r>
       <r>  -44.8089    1.0000 </r>
       <r>  -44.7240    1.0000 </r>
       <r>  -44.7151    1.0000 </r>
       <r>  -44.5843    1.0000 </r>
       <r>  -44.5743    1.0000 </r>
       <r>  -16.2124    1.0000 </r>
       <r>  -15.8601    1.0000 </r>
       <r>  -15.4111    1.0000 </r>
       <r>  -15.0079    1.0000 </r>
       <r>  -14.7983    1.0000 </r>
       <r>  -14.7914    1.0000 </r>
       <r>  -14.7143    1.0000 </r>
       <r>  -14.6498    1.0000 </r>
       <r>   -2.8509    1.0000 </r>
       <r>   -2.6125    1.0000 </r>
       <r>   -2.2486    1.0000 </r>
       <r>   -2.1869    1.0000 </r>
       <r>   -1.9676    1.0000 </r>
       <r>   -1.9415    1.0000 </r>
       <r>   -1.8466    1.0000 </r>
       <r>   -1.5973    1.0000 </r>
       <r>   -1.1252    1.0000 </r>
       <r>   -0.9429    1.0000 </r>
       <r>   -0.6258    1.0000 </r>
       <r>   -0.5023    1.0000 </r>
       <r>   -0.3651    1.0000 </r>
       <r>   -0.0317    1.0000 </r>
       <r>    0.1089    1.0000 </r>
       <r>    0.4644    1.0000 </r>
       <r>    0.6479    1.0000 </r>
       <r>    0.7472    1.0000 </r>
       <r>    0.9685    1.0000 </r>
       <r>    1.1884    1.0000 </r>
       <r>    1.2181    1.0000 </r>
       <r>    1.6656    1.0000 </r>
       <r>    1.7831    1.0000 </r>
       <r>    2.1507    1.0000 </r>
       <r>    2.2913    1.0000 </r>
       <r>    2.3654    1.0000 </r>
       <r>    2.7436    1.0000 </r>
       <r>    2.8061    1.0000 </r>
       <r>    3.1862    1.0000 </r>
       <r>    3.3380    1.0000 </r>
       <r>    5.5804    0.0000 </r>
       <r>    5.6009    0.0000 </r>
       <r>    6.0523    0.0000 </r>
       <r>    6.0728    0.0000 </r>
       <r>    6.0939    0.0000 </r>
       <r>    6.2973    0.0000 </r>
       <r>    6.4614    0.0000 </r>
       <r>    6.6102    0.0000 </r>
       <r>    7.0111    0.0000 </r>
       <r>    7.0454    0.0000 </r>
      </set>
      <set comment="kpoint 20">
       <r>  -48.8076    1.0000 </r>
       <r>  -48.8061    1.0000 </r>
       <r>  -48.7198    1.0000 </r>
       <r>  -48.7154    1.0000 </r>
       <r>  -48.6818    1.0000 </r>
       <r>  -48.6768    1.0000 </r>
       <r>  -44.8537    1.0000 </r>
       <r>  -44.8518    1.0000 </r>
       <r>  -44.7170    1.0000 </r>
       <r>  -44.7105    1.0000 </r>
       <r>  -44.5778    1.0000 </r>
       <r>  -44.5705    1.0000 </r>
       <r>  -15.8504    1.0000 </r>
       <r>  -15.5823    1.0000 </r>
       <r>  -15.1846    1.0000 </r>
       <r>  -14.9174    1.0000 </r>
       <r>  -14.8614    1.0000 </r>
       <r>  -14.8564    1.0000 </r>
       <r>  -14.7605    1.0000 </r>
       <r>  -14.6754    1.0000 </r>
       <r>   -2.6041    1.0000 </r>
       <r>   -2.5362    1.0000 </r>
       <r>   -2.2789    1.0000 </r>
       <r>   -2.1520    1.0000 </r>
       <r>   -2.0271    1.0000 </r>
[...]
       <r>    -5.3051     0.0000    20.0000 </r>
       <r>    -5.0992     0.0000    20.0000 </r>
       <r>    -4.8932     0.0000    20.0000 </r>
       <r>    -4.6872     0.0000    20.0000 </r>
       <r>    -4.4812     0.0000    20.0000 </r>
       <r>    -4.2752     0.0000    20.0000 </r>
       <r>    -4.0692     0.0000    20.0000 </r>
       <r>    -3.8632     0.0000    20.0000 </r>
       <r>    -3.6572     0.0000    20.0000 </r>
       <r>    -3.4512     0.0000    20.0000 </r>
       <r>    -3.2452     0.3002    20.0726 </r>
       <r>    -3.0392     0.5964    20.3371 </r>
       <r>    -2.8332     1.8877    20.9603 </r>
       <r>    -2.6273     0.8370    21.5331 </r>
       <r>    -2.4213     0.7251    22.1137 </r>
       <r>    -2.2153     3.3322    23.1614 </r>
       <r>    -2.0093     2.4341    24.2693 </r>
       <r>    -1.8033     3.5282    25.8839 </r>
       <r>    -1.5973     2.7919    27.1787 </r>
       <r>    -1.3913     0.4092    27.9271 </r>
       <r>    -1.1853     1.5703    28.6163 </r>
       <r>    -0.9793     1.9351    29.7165 </r>
       <r>    -0.7733     0.8880    30.4186 </r>
       <r>    -0.5673     1.8225    31.3147 </r>
       <r>    -0.3613     1.0970    32.1867 </r>
       <r>    -0.1553     1.5683    32.9623 </r>
       <r>     0.0506     2.2280    33.8982 </r>
       <r>     0.2566     2.6659    35.1527 </r>
       <r>     0.4626     2.2322    36.2384 </r>
       <r>     0.6686     1.5086    37.3429 </r>
       <r>     0.8746     1.2485    38.0857 </r>
       <r>     1.0806     1.7757    39.2515 </r>
       <r>     1.2866     1.7366    39.9577 </r>
       <r>     1.4926     2.3201    40.9351 </r>
       <r>     1.6986     1.9328    41.9196 </r>
       <r>     1.9046     2.2303    43.0594 </r>
       <r>     2.1106     2.6488    44.2635 </r>
       <r>     2.3166     2.4393    45.6275 </r>
       <r>     2.5225     1.3477    46.4455 </r>
       <r>     2.7285     1.9386    47.2565 </r>
       <r>     2.9345     0.3468    47.9679 </r>
       <r>     3.1405     1.3036    48.3471 </r>
       <r>     3.3465     1.7410    49.3908 </r>
       <r>     3.5525     0.0347    50.0000 </r>
       <r>     3.7585     0.0000    50.0000 </r>
       <r>     3.9645     0.0000    50.0000 </r>
       <r>     4.1705     0.0000    50.0000 </r>
       <r>     4.3765     0.0000    50.0000 </r>
       <r>     4.5825     0.0000    50.0000 </r>
       <r>     4.7885     0.0000    50.0000 </r>
       <r>     4.9945     0.0000    50.0000 </r>
       <r>     5.2004     0.4897    50.1009 </r>
       <r>     5.4064     1.2583    50.6521 </r>
       <r>     5.6124     2.2474    51.5594 </r>
       <r>     5.8184     2.4239    52.6029 </r>
       <r>     6.0244     2.8076    53.7712 </r>
       <r>     6.2304     3.0469    55.0812 </r>
       <r>     6.4364     0.7050    55.9381 </r>
       <r>     6.6424     2.4403    56.8670 </r>
       <r>     6.8484     1.6265    57.7565 </r>
       <r>     7.0544     2.6389    58.8900 </r>
       <r>     7.2604     1.3116    59.9559 </r>
       <r>     7.4664     0.0000    60.0000 </r>
       <r>     7.6724     0.0000    60.0000 </r>
       <r>     7.8783     0.0000    60.0000 </r>
       <r>     8.0843     0.0000    60.0000 </r>
       <r>     8.2903     0.0000    60.0000 </r>
       <r>     8.4963     0.0000    60.0000 </r>
       <r>     8.7023     0.0000    60.0000 </r>
       <r>     8.9083     0.0000    60.0000 </r>
       <r>     9.1143     0.0000    60.0000 </r>
       <r>     9.3203     0.0000    60.0000 </r>
       <r>     9.5263     0.0000    60.0000 </r>
       <r>     9.7323     0.0000    60.0000 </r>
       <r>     9.9383     0.0000    60.0000 </r>
       <r>    10.1443     0.0000    60.0000 </r>
      </set>
      <set comment="spin 2">
       <r>   -51.6534     0.0000     0.0000 </r>
       <r>   -51.4474     0.0000     0.0000 </r>
       <r>   -51.2414     0.0000     0.0000 </r>
       <r>   -51.0354     0.0000     0.0000 </r>
       <r>   -50.8294     0.0000     0.0000 </r>
       <r>   -50.6234     0.0000     0.0000 </r>
       <r>   -50.4174     0.0000     0.0000 </r>
       <r>   -50.2114     0.0000     0.0000 </r>
       <r>   -50.0054     0.0000     0.0000 </r>
       <r>   -49.7994     0.0000     0.0000 </r>
       <r>   -49.5934     0.0000     0.0000 </r>
       <r>   -49.3875     0.0000     0.0000 </r>
       <r>   -49.1815     0.0000     0.0000 </r>
       <r>   -48.9755     0.0000     0.0000 </r>
       <r>   -48.7695     6.2131     1.2799 </r>
       <r>   -48.5635     0.0000     6.0000 </r>
       <r>   -48.3575     0.0000     6.0000 </r>
       <r>   -48.1515     0.0000     6.0000 </r>
       <r>   -47.9455     0.0000     6.0000 </r>
       <r>   -47.7395     0.0000     6.0000 </r>
       <r>   -47.5335     0.0000     6.0000 </r>
       <r>   -47.3275     0.0000     6.0000 </r>
       <r>   -47.1215     0.0000     6.0000 </r>
       <r>   -46.9155     0.0000     6.0000 </r>
       <r>   -46.7096     0.0000     6.0000 </r>
       <r>   -46.5036     0.0000     6.0000 </r>
       <r>   -46.2976     0.0000     6.0000 </r>
       <r>   -46.0916     0.0000     6.0000 </r>
       <r>   -45.8856     0.0000     6.0000 </r>
       <r>   -45.6796     0.0000     6.0000 </r>
       <r>   -45.4736     0.0000     6.0000 </r>
       <r>   -45.2676     0.0000     6.0000 </r>
       <r>   -45.0616     0.0000     6.0000 </r>
       <r>   -44.8556     3.5785     6.7371 </r>
       <r>   -44.6496     8.9463    10.0000 </r>
       <r>   -44.4436     0.0000    12.0000 </r>
       <r>   -44.2376     0.0000    12.0000 </r>
       <r>   -44.0317     0.0000    12.0000 </r>
       <r>   -43.8257     0.0000    12.0000 </r>
       <r>   -43.6197     0.0000    12.0000 </r>
       <r>   -43.4137     0.0000    12.0000 </r>
       <r>   -43.2077     0.0000    12.0000 </r>
       <r>   -43.0017     0.0000    12.0000 </r>
       <r>   -42.7957     0.0000    12.0000 </r>
       <r>   -42.5897     0.0000    12.0000 </r>
       <r>   -42.3837     0.0000    12.0000 </r>
       <r>   -42.1777     0.0000    12.0000 </r>
       <r>   -41.9717     0.0000    12.0000 </r>
       <r>   -41.7657     0.0000    12.0000 </r>
       <r>   -41.5598     0.0000    12.0000 </r>
       <r>   -41.3538     0.0000    12.0000 </r>
       <r>   -41.1478     0.0000    12.0000 </r>
       <r>   -40.9418     0.0000    12.0000 </r>
       <r>   -40.7358     0.0000    12.0000 </r>
       <r>   -40.5298     0.0000    12.0000 </r>
       <r>   -40.3238     0.0000    12.0000 </r>
       <r>   -40.1178     0.0000    12.0000 </r>
       <r>   -39.9118     0.0000    12.0000 </r>
       <r>   -39.7058     0.0000    12.0000 </r>
       <r>   -39.4998     0.0000    12.0000 </r>
       <r>   -39.2938     0.0000    12.0000 </r>
       <r>   -39.0878     0.0000    12.0000 </r>
       <r>   -38.8819     0.0000    12.0000 </r>
       <r>   -38.6759     0.0000    12.0000 </r>
       <r>   -38.4699     0.0000    12.0000 </r>
       <r>   -38.2639     0.0000    12.0000 </r>
       <r>   -38.0579     0.0000    12.0000 </r>
       <r>   -37.8519     0.0000    12.0000 </r>
       <r>   -37.6459     0.0000    12.0000 </r>
       <r>   -37.4399     0.0000    12.0000 </r>
       <r>   -37.2339     0.0000    12.0000 </r>
       <r>   -37.0279     0.0000    12.0000 </r>
       <r>   -36.8219     0.0000    12.0000 </r>
       <r>   -36.6159     0.0000    12.0000 </r>
       <r>   -36.4100     0.0000    12.0000 </r>
       <r>   -36.2040     0.0000    12.0000 </r>
       <r>   -35.9980     0.0000    12.0000 </r>
       <r>   -35.7920     0.0000    12.0000 </r>
       <r>   -35.5860     0.0000    12.0000 </r>
       <r>   -35.3800     0.0000    12.0000 </r>
       <r>   -35.1740     0.0000    12.0000 </r>
       <r>   -34.9680     0.0000    12.0000 </r>
       <r>   -34.7620     0.0000    12.0000 </r>
       <r>   -34.5560     0.0000    12.0000 </r>
       <r>   -34.3500     0.0000    12.0000 </r>
       <r>   -34.1440     0.0000    12.0000 </r>
       <r>   -33.9380     0.0000    12.0000 </r>
       <r>   -33.7321     0.0000    12.0000 </r>
       <r>   -33.5261     0.0000    12.0000 </r>
       <r>   -33.3201     0.0000    12.0000 </r>
       <r>   -33.1141     0.0000    12.0000 </r>
       <r>   -32.9081     0.0000    12.0000 </r>
       <r>   -32.7021     0.0000    12.0000 </r>
       <r>   -32.4961     0.0000    12.0000 </r>
       <r>   -32.2901     0.0000    12.0000 </r>
       <r>   -32.0841     0.0000    12.0000 </r>
       <r>   -31.8781     0.0000    12.0000 </r>
       <r>   -31.6721     0.0000    12.0000 </r>
       <r>   -31.4661     0.0000    12.0000 </r>
       <r>   -31.2601     0.0000    12.0000 </r>
       <r>   -31.0542     0.0000    12.0000 </r>
       <r>   -30.8482     0.0000    12.0000 </r>
       <r>   -30.6422     0.0000    12.0000 </r>
       <r>   -30.4362     0.0000    12.0000 </r>
       <r>   -30.2302     0.0000    12.0000 </r>
       <r>   -30.0242     0.0000    12.0000 </r>
       <r>   -29.8182     0.0000    12.0000 </r>
       <r>   -29.6122     0.0000    12.0000 </r>
       <r>   -29.4062     0.0000    12.0000 </r>
       <r>   -29.2002     0.0000    12.0000 </r>
       <r>   -28.9942     0.0000    12.0000 </r>
       <r>   -28.7882     0.0000    12.0000 </r>
       <r>   -28.5823     0.0000    12.0000 </r>
       <r>   -28.3763     0.0000    12.0000 </r>
       <r>   -28.1703     0.0000    12.0000 </r>
       <r>   -27.9643     0.0000    12.0000 </r>
       <r>   -27.7583     0.0000    12.0000 </r>
       <r>   -27.5523     0.0000    12.0000 </r>
       <r>   -27.3463     0.0000    12.0000 </r>
       <r>   -27.1403     0.0000    12.0000 </r>
       <r>   -26.9343     0.0000    12.0000 </r>
       <r>   -26.7283     0.0000    12.0000 </r>
       <r>   -26.5223     0.0000    12.0000 </r>
       <r>   -26.3163     0.0000    12.0000 </r>
       <r>   -26.1103     0.0000    12.0000 </r>
       <r>   -25.9044     0.0000    12.0000 </r>
       <r>   -25.6984     0.0000    12.0000 </r>
       <r>   -25.4924     0.0000    12.0000 </r>
       <r>   -25.2864     0.0000    12.0000 </r>
       <r>   -25.0804     0.0000    12.0000 </r>
       <r>   -24.8744     0.0000    12.0000 </r>
       <r>   -24.6684     0.0000    12.0000 </r>
       <r>   -24.4624     0.0000    12.0000 </r>
       <r>   -24.2564     0.0000    12.0000 </r>
       <r>   -24.0504     0.0000    12.0000 </r>
       <r>   -23.8444     0.0000    12.0000 </r>
       <r>   -23.6384     0.0000    12.0000 </r>
       <r>   -23.4325     0.0000    12.0000 </r>
       <r>   -23.2265     0.0000    12.0000 </r>
       <r>   -23.0205     0.0000    12.0000 </r>
       <r>   -22.8145     0.0000    12.0000 </r>
       <r>   -22.6085     0.0000    12.0000 </r>
       <r>   -22.4025     0.0000    12.0000 </r>
       <r>   -22.1965     0.0000    12.0000 </r>
       <r>   -21.9905     0.0000    12.0000 </r>
       <r>   -21.7845     0.0000    12.0000 </r>
       <r>   -21.5785     0.0000    12.0000 </r>
       <r>   -21.3725     0.0000    12.0000 </r>
       <r>   -21.1665     0.0000    12.0000 </r>
       <r>   -20.9605     0.0000    12.0000 </r>
       <r>   -20.7546     0.0000    12.0000 </r>
       <r>   -20.5486     0.0000    12.0000 </r>
       <r>   -20.3426     0.0000    12.0000 </r>
       <r>   -20.1366     0.0000    12.0000 </r>
       <r>   -19.9306     0.0000    12.0000 </r>
       <r>   -19.7246     0.0000    12.0000 </r>
       <r>   -19.5186     0.0000    12.0000 </r>
       <r>   -19.3126     0.0000    12.0000 </r>
       <r>   -19.1066     0.0000    12.0000 </r>
       <r>   -18.9006     0.0000    12.0000 </r>
       <r>   -18.6946     0.0000    12.0000 </r>
       <r>   -18.4886     0.0000    12.0000 </r>
       <r>   -18.2826     0.0000    12.0000 </r>
       <r>   -18.0767     0.0000    12.0000 </r>
       <r>   -17.8707     0.0000    12.0000 </r>
       <r>   -17.6647     0.0000    12.0000 </r>
       <r>   -17.4587     0.0000    12.0000 </r>
       <r>   -17.2527     0.0000    12.0000 </r>
       <r>   -17.0467     0.0000    12.0000 </r>
       <r>   -16.8407     0.0000    12.0000 </r>
       <r>   -16.6347     0.1664    12.0378 </r>
       <r>   -16.4287     0.3111    12.1927 </r>
       <r>   -16.2227     0.8322    12.4964 </r>
       <r>   -16.0167     0.4570    12.8227 </r>
       <r>   -15.8107     0.5025    13.1321 </r>
       <r>   -15.6048     0.6115    13.4081 </r>
       <r>   -15.3988     0.7984    13.8252 </r>
       <r>   -15.1928     0.6005    14.4558 </r>
       <r>   -14.9868     2.1257    15.6486 </r>
       <r>   -14.7808     3.5037    17.4075 </r>
       <r>   -14.5748     2.3781    19.7970 </r>
       <r>   -14.3688     0.0000    20.0000 </r>
       <r>   -14.1628     0.0000    20.0000 </r>
       <r>   -13.9568     0.0000    20.0000 </r>
       <r>   -13.7508     0.0000    20.0000 </r>
       <r>   -13.5448     0.0000    20.0000 </r>
       <r>   -13.3388     0.0000    20.0000 </r>
       <r>   -13.1328     0.0000    20.0000 </r>
       <r>   -12.9269     0.0000    20.0000 </r>
       <r>   -12.7209     0.0000    20.0000 </r>
       <r>   -12.5149     0.0000    20.0000 </r>
       <r>   -12.3089     0.0000    20.0000 </r>
       <r>   -12.1029     0.0000    20.0000 </r>
       <r>   -11.8969     0.0000    20.0000 </r>
       <r>   -11.6909     0.0000    20.0000 </r>
       <r>   -11.4849     0.0000    20.0000 </r>
       <r>   -11.2789     0.0000    20.0000 </r>
       <r>   -11.0729     0.0000    20.0000 </r>
       <r>   -10.8669     0.0000    20.0000 </r>
       <r>   -10.6609     0.0000    20.0000 </r>
       <r>   -10.4550     0.0000    20.0000 </r>
       <r>   -10.2490     0.0000    20.0000 </r>
       <r>   -10.0430     0.0000    20.0000 </r>
       <r>    -9.8370     0.0000    20.0000 </r>
       <r>    -9.6310     0.0000    20.0000 </r>
       <r>    -9.4250     0.0000    20.0000 </r>
       <r>    -9.2190     0.0000    20.0000 </r>
       <r>    -9.0130     0.0000    20.0000 </r>
       <r>    -8.8070     0.0000    20.0000 </r>
       <r>    -8.6010     0.0000    20.0000 </r>
       <r>    -8.3950     0.0000    20.0000 </r>
       <r>    -8.1890     0.0000    20.0000 </r>
       <r>    -7.9830     0.0000    20.0000 </r>
       <r>    -7.7771     0.0000    20.0000 </r>
       <r>    -7.5711     0.0000    20.0000 </r>
       <r>    -7.3651     0.0000    20.0000 </r>
       <r>    -7.1591     0.0000    20.0000 </r>
       <r>    -6.9531     0.0000    20.0000 </r>
       <r>    -6.7471     0.0000    20.0000 </r>
       <r>    -6.5411     0.0000    20.0000 </r>
       <r>    -6.3351     0.0000    20.0000 </r>
       <r>    -6.1291     0.0000    20.0000 </r>
       <r>    -5.9231     0.0000    20.0000 </r>
       <r>    -5.7171     0.0000    20.0000 </r>
       <r>    -5.5111     0.0000    20.0000 </r>
       <r>    -5.3051     0.0000    20.0000 </r>
       <r>    -5.0992     0.0000    20.0000 </r>
       <r>    -4.8932     0.0000    20.0000 </r>
       <r>    -4.6872     0.0000    20.0000 </r>
       <r>    -4.4812     0.0000    20.0000 </r>
       <r>    -4.2752     0.0000    20.0000 </r>
       <r>    -4.0692     0.0000    20.0000 </r>
       <r>    -3.8632     0.0000    20.0000 </r>
       <r>    -3.6572     0.0000    20.0000 </r>
       <r>    -3.4512     0.0000    20.0000 </r>
       <r>    -3.2452     0.3003    20.0726 </r>
       <r>    -3.0392     0.5965    20.3372 </r>
       <r>    -2.8332     1.8880    20.9603 </r>
       <r>    -2.6273     0.8372    21.5332 </r>
       <r>    -2.4213     0.7252    22.1137 </r>
       <r>    -2.2153     3.3322    23.1614 </r>
       <r>    -2.0093     2.4342    24.2693 </r>
       <r>    -1.8033     3.5281    25.8839 </r>
       <r>    -1.5973     2.7917    27.1786 </r>
       <r>    -1.3913     0.4092    27.9271 </r>
       <r>    -1.1853     1.5703    28.6163 </r>
       <r>    -0.9793     1.9351    29.7165 </r>
       <r>    -0.7733     0.8880    30.4186 </r>
       <r>    -0.5673     1.8225    31.3147 </r>
       <r>    -0.3613     1.0970    32.1867 </r>
       <r>    -0.1553     1.5683    32.9623 </r>
       <r>     0.0506     2.2280    33.8982 </r>
       <r>     0.2566     2.6659    35.1527 </r>
       <r>     0.4626     2.2323    36.2384 </r>
       <r>     0.6686     1.5086    37.3429 </r>
       <r>     0.8746     1.2485    38.0858 </r>
       <r>     1.0806     1.7757    39.2515 </r>
       <r>     1.2866     1.7367    39.9577 </r>
       <r>     1.4926     2.3202    40.9351 </r>
       <r>     1.6986     1.9327    41.9196 </r>
       <r>     1.9046     2.2304    43.0594 </r>
       <r>     2.1106     2.6489    44.2635 </r>
       <r>     2.3166     2.4392    45.6275 </r>
       <r>     2.5225     1.3478    46.4455 </r>
       <r>     2.7285     1.9386    47.2565 </r>
       <r>     2.9345     0.3468    47.9679 </r>
       <r>     3.1405     1.3038    48.3471 </r>
       <r>     3.3465     1.7411    49.3908 </r>
       <r>     3.5525     0.0347    50.0000 </r>
       <r>     3.7585     0.0000    50.0000 </r>
       <r>     3.9645     0.0000    50.0000 </r>
       <r>     4.1705     0.0000    50.0000 </r>
       <r>     4.3765     0.0000    50.0000 </r>
       <r>     4.5825     0.0000    50.0000 </r>
       <r>     4.7885     0.0000    50.0000 </r>
       <r>     4.9945     0.0000    50.0000 </r>
       <r>     5.2004     0.4897    50.1009 </r>
       <r>     5.4064     1.2583    50.6521 </r>
       <r>     5.6124     2.2473    51.5594 </r>
       <r>     5.8184     2.4238    52.6029 </r>
       <r>     6.0244     2.8073    53.7711 </r>
       <r>     6.2304     3.0465    55.0811 </r>
       <r>     6.4364     0.7050    55.9381 </r>
       <r>     6.6424     2.4403    56.8670 </r>
       <r>     6.8484     1.6265    57.7565 </r>
       <r>     7.0544     2.6391    58.8901 </r>
       <r>     7.2604     1.2423    59.9416 </r>
       <r>     7.4664     0.0000    60.0000 </r>
       <r>     7.6724     0.0000    60.0000 </r>
       <r>     7.8783     0.0000    60.0000 </r>
       <r>     8.0843     0.0000    60.0000 </r>
       <r>     8.2903     0.0000    60.0000 </r>
       <r>     8.4963     0.0000    60.0000 </r>
       <r>     8.7023     0.0000    60.0000 </r>
       <r>     8.9083     0.0000    60.0000 </r>
       <r>     9.1143     0.0000    60.0000 </r>
       <r>     9.3203     0.0000    60.0000 </r>
       <r>     9.5263     0.0000    60.0000 </r>
       <r>     9.7323     0.0000    60.0000 </r>
       <r>     9.9383     0.0000    60.0000 </r>
       <r>    10.1443     0.0000    60.0000 </r>
      </set>
     </set>
    </array>
   </total>
  </dos>
 </calculation>
 <structure name="finalpos" >
  <crystal>
   <varray name="basis" >
    <v>       2.85751255       0.00000062      -0.00000020 </v>
    <v>       0.00000016       4.49836492      -0.00000109 </v>
    <v>       0.00000244      -0.00000280       9.28636537 </v>
   </varray>
   <i name="volume">    119.36818702 </i>
   <varray name="rec_basis" >
    <v>       0.34995472      -0.00000001      -0.00000009 </v>
    <v>      -0.00000005       0.22230300       0.00000007 </v>
    <v>       0.00000001       0.00000003       0.10768476 </v>
   </varray>
  </crystal>
  <varray name="positions" >
   <v>       0.25000216       0.01802869       0.86557889 </v>
   <v>       0.75000206       0.98196831       0.13442006 </v>
   <v>       0.75000209       0.51803165       0.63442019 </v>
   <v>       0.25000240       0.48197163       0.36557933 </v>
   <v>       0.24999832       0.71178859       0.53752577 </v>
   <v>       0.74999843       0.21178089       0.96247332 </v>
   <v>       0.24999857       0.78821134       0.03752547 </v>
   <v>       0.74999871       0.28821952       0.46247316 </v>
   <v>       0.24999931       0.19531401       0.21680694 </v>
   <v>       0.24999910       0.30468577       0.71680711 </v>
   <v>       0.74999963       0.69531925       0.28319531 </v>
   <v>       0.74999922       0.80468136       0.78319546 </v>
  </varray>
 </structure>
</modeling>
