unknown system                          
           1
     2.857513    0.000001   -0.000000
     0.000000    4.498365   -0.000001
     0.000002   -0.000003    9.286365
   Mn   O 
   4   8
Direct configuration=     1
   0.25000216  0.01802869  0.86557889
   0.75000206  0.98196831  0.13442006
   0.75000209  0.51803165  0.63442019
   0.25000240  0.48197163  0.36557933
   0.24999832  0.71178859  0.53752577
   0.74999843  0.21178089  0.96247332
   0.24999857  0.78821134  0.03752547
   0.74999871  0.28821952  0.46247316
   0.24999931  0.19531401  0.21680694
   0.24999910  0.30468577  0.71680711
   0.74999963  0.69531925  0.28319531
   0.74999922  0.80468136  0.78319546
