  12  12   0   0
  0.1031597E+02  0.2873988E-09  0.4602672E-09  0.9358284E-09  0.5000000E-15
  1.000000000000000E-004
  CAR 
 unknown system                          
      9.44849815    -49.28140176  301      4.01598241      1.00000000
    -49.281  0.0000E+00  0.0000E+00  0.0000E+00  0.0000E+00
    -49.086  0.0000E+00  0.0000E+00  0.0000E+00  0.0000E+00
    -48.890  0.0000E+00  0.0000E+00  0.0000E+00  0.0000E+00
    -48.694  0.0000E+00  0.0000E+00  0.0000E+00  0.0000E+00
    -48.498  0.0000E+00  0.0000E+00  0.0000E+00  0.0000E+00
    -48.303  0.0000E+00  0.0000E+00  0.0000E+00  0.0000E+00
    -48.107  0.0000E+00  0.0000E+00  0.0000E+00  0.0000E+00
    -47.911  0.0000E+00  0.0000E+00  0.0000E+00  0.0000E+00
    -47.715  0.0000E+00  0.0000E+00  0.0000E+00  0.0000E+00
    -47.520  0.0000E+00  0.0000E+00  0.0000E+00  0.0000E+00
    -47.324  0.0000E+00  0.0000E+00  0.0000E+00  0.0000E+00
    -47.128  0.0000E+00  0.0000E+00  0.0000E+00  0.0000E+00
    -46.932  0.0000E+00  0.0000E+00  0.0000E+00  0.0000E+00
    -46.736  0.0000E+00  0.0000E+00  0.0000E+00  0.0000E+00
    -46.541  0.6538E+01  0.6533E+01  0.1280E+01  0.1279E+01
    -46.345  0.9122E+01  0.9122E+01  0.6000E+01  0.6000E+01
    -46.149  0.0000E+00  0.0000E+00  0.6000E+01  0.6000E+01
    -45.953  0.0000E+00  0.0000E+00  0.6000E+01  0.6000E+01
    -45.758  0.0000E+00  0.0000E+00  0.6000E+01  0.6000E+01
    -45.562  0.0000E+00  0.0000E+00  0.6000E+01  0.6000E+01
    -45.366  0.0000E+00  0.0000E+00  0.6000E+01  0.6000E+01
    -45.170  0.0000E+00  0.0000E+00  0.6000E+01  0.6000E+01
    -44.975  0.0000E+00  0.0000E+00  0.6000E+01  0.6000E+01
    -44.779  0.0000E+00  0.0000E+00  0.6000E+01  0.6000E+01
    -44.583  0.0000E+00  0.0000E+00  0.6000E+01  0.6000E+01
    -44.387  0.0000E+00  0.0000E+00  0.6000E+01  0.6000E+01
    -44.191  0.0000E+00  0.0000E+00  0.6000E+01  0.6000E+01
    -43.996  0.0000E+00  0.0000E+00  0.6000E+01  0.6000E+01
    -43.800  0.0000E+00  0.0000E+00  0.6000E+01  0.6000E+01
    -43.604  0.5194E+01  0.5195E+01  0.7017E+01  0.7017E+01
    -43.408  0.1753E+01  0.1753E+01  0.1000E+02  0.1000E+02
    -43.213  0.0000E+00  0.0000E+00  0.1200E+02  0.1200E+02
    -43.017  0.0000E+00  0.0000E+00  0.1200E+02  0.1200E+02
    -42.821  0.0000E+00  0.0000E+00  0.1200E+02  0.1200E+02
    -42.625  0.0000E+00  0.0000E+00  0.1200E+02  0.1200E+02
    -42.430  0.0000E+00  0.0000E+00  0.1200E+02  0.1200E+02
    -42.234  0.0000E+00  0.0000E+00  0.1200E+02  0.1200E+02
    -42.038  0.0000E+00  0.0000E+00  0.1200E+02  0.1200E+02
    -41.842  0.0000E+00  0.0000E+00  0.1200E+02  0.1200E+02
    -41.647  0.0000E+00  0.0000E+00  0.1200E+02  0.1200E+02
    -41.451  0.0000E+00  0.0000E+00  0.1200E+02  0.1200E+02
    -41.255  0.0000E+00  0.0000E+00  0.1200E+02  0.1200E+02
    -41.059  0.0000E+00  0.0000E+00  0.1200E+02  0.1200E+02
    -40.863  0.0000E+00  0.0000E+00  0.1200E+02  0.1200E+02
    -40.668  0.0000E+00  0.0000E+00  0.1200E+02  0.1200E+02
    -40.472  0.0000E+00  0.0000E+00  0.1200E+02  0.1200E+02
    -40.276  0.0000E+00  0.0000E+00  0.1200E+02  0.1200E+02
    -40.080  0.0000E+00  0.0000E+00  0.1200E+02  0.1200E+02
    -39.885  0.0000E+00  0.0000E+00  0.1200E+02  0.1200E+02
    -39.689  0.0000E+00  0.0000E+00  0.1200E+02  0.1200E+02
    -39.493  0.0000E+00  0.0000E+00  0.1200E+02  0.1200E+02
    -39.297  0.0000E+00  0.0000E+00  0.1200E+02  0.1200E+02
    -39.102  0.0000E+00  0.0000E+00  0.1200E+02  0.1200E+02
    -38.906  0.0000E+00  0.0000E+00  0.1200E+02  0.1200E+02
    -38.710  0.0000E+00  0.0000E+00  0.1200E+02  0.1200E+02
    -38.514  0.0000E+00  0.0000E+00  0.1200E+02  0.1200E+02
    -38.318  0.0000E+00  0.0000E+00  0.1200E+02  0.1200E+02
    -38.123  0.0000E+00  0.0000E+00  0.1200E+02  0.1200E+02
    -37.927  0.0000E+00  0.0000E+00  0.1200E+02  0.1200E+02
    -37.731  0.0000E+00  0.0000E+00  0.1200E+02  0.1200E+02
    -37.535  0.0000E+00  0.0000E+00  0.1200E+02  0.1200E+02
    -37.340  0.0000E+00  0.0000E+00  0.1200E+02  0.1200E+02
    -37.144  0.0000E+00  0.0000E+00  0.1200E+02  0.1200E+02
    -36.948  0.0000E+00  0.0000E+00  0.1200E+02  0.1200E+02
    -36.752  0.0000E+00  0.0000E+00  0.1200E+02  0.1200E+02
    -36.557  0.0000E+00  0.0000E+00  0.1200E+02  0.1200E+02
    -36.361  0.0000E+00  0.0000E+00  0.1200E+02  0.1200E+02
    -36.165  0.0000E+00  0.0000E+00  0.1200E+02  0.1200E+02
    -35.969  0.0000E+00  0.0000E+00  0.1200E+02  0.1200E+02
    -35.774  0.0000E+00  0.0000E+00  0.1200E+02  0.1200E+02
    -35.578  0.0000E+00  0.0000E+00  0.1200E+02  0.1200E+02
    -35.382  0.0000E+00  0.0000E+00  0.1200E+02  0.1200E+02
    -35.186  0.0000E+00  0.0000E+00  0.1200E+02  0.1200E+02
    -34.990  0.0000E+00  0.0000E+00  0.1200E+02  0.1200E+02
    -34.795  0.0000E+00  0.0000E+00  0.1200E+02  0.1200E+02
    -34.599  0.0000E+00  0.0000E+00  0.1200E+02  0.1200E+02
    -34.403  0.0000E+00  0.0000E+00  0.1200E+02  0.1200E+02
    -34.207  0.0000E+00  0.0000E+00  0.1200E+02  0.1200E+02
    -34.012  0.0000E+00  0.0000E+00  0.1200E+02  0.1200E+02
    -33.816  0.0000E+00  0.0000E+00  0.1200E+02  0.1200E+02
    -33.620  0.0000E+00  0.0000E+00  0.1200E+02  0.1200E+02
    -33.424  0.0000E+00  0.0000E+00  0.1200E+02  0.1200E+02
    -33.229  0.0000E+00  0.0000E+00  0.1200E+02  0.1200E+02
    -33.033  0.0000E+00  0.0000E+00  0.1200E+02  0.1200E+02
    -32.837  0.0000E+00  0.0000E+00  0.1200E+02  0.1200E+02
    -32.641  0.0000E+00  0.0000E+00  0.1200E+02  0.1200E+02
    -32.445  0.0000E+00  0.0000E+00  0.1200E+02  0.1200E+02
    -32.250  0.0000E+00  0.0000E+00  0.1200E+02  0.1200E+02
    -32.054  0.0000E+00  0.0000E+00  0.1200E+02  0.1200E+02
    -31.858  0.0000E+00  0.0000E+00  0.1200E+02  0.1200E+02
    -31.662  0.0000E+00  0.0000E+00  0.1200E+02  0.1200E+02
    -31.467  0.0000E+00  0.0000E+00  0.1200E+02  0.1200E+02
    -31.271  0.0000E+00  0.0000E+00  0.1200E+02  0.1200E+02
    -31.075  0.0000E+00  0.0000E+00  0.1200E+02  0.1200E+02
    -30.879  0.0000E+00  0.0000E+00  0.1200E+02  0.1200E+02
    -30.684  0.0000E+00  0.0000E+00  0.1200E+02  0.1200E+02
    -30.488  0.0000E+00  0.0000E+00  0.1200E+02  0.1200E+02
    -30.292  0.0000E+00  0.0000E+00  0.1200E+02  0.1200E+02
    -30.096  0.0000E+00  0.0000E+00  0.1200E+02  0.1200E+02
    -29.901  0.0000E+00  0.0000E+00  0.1200E+02  0.1200E+02
    -29.705  0.0000E+00  0.0000E+00  0.1200E+02  0.1200E+02
    -29.509  0.0000E+00  0.0000E+00  0.1200E+02  0.1200E+02
    -29.313  0.0000E+00  0.0000E+00  0.1200E+02  0.1200E+02
    -29.117  0.0000E+00  0.0000E+00  0.1200E+02  0.1200E+02
    -28.922  0.0000E+00  0.0000E+00  0.1200E+02  0.1200E+02
    -28.726  0.0000E+00  0.0000E+00  0.1200E+02  0.1200E+02
    -28.530  0.0000E+00  0.0000E+00  0.1200E+02  0.1200E+02
    -28.334  0.0000E+00  0.0000E+00  0.1200E+02  0.1200E+02
    -28.139  0.0000E+00  0.0000E+00  0.1200E+02  0.1200E+02
    -27.943  0.0000E+00  0.0000E+00  0.1200E+02  0.1200E+02
    -27.747  0.0000E+00  0.0000E+00  0.1200E+02  0.1200E+02
    -27.551  0.0000E+00  0.0000E+00  0.1200E+02  0.1200E+02
    -27.356  0.0000E+00  0.0000E+00  0.1200E+02  0.1200E+02
    -27.160  0.0000E+00  0.0000E+00  0.1200E+02  0.1200E+02
    -26.964  0.0000E+00  0.0000E+00  0.1200E+02  0.1200E+02
    -26.768  0.0000E+00  0.0000E+00  0.1200E+02  0.1200E+02
    -26.573  0.0000E+00  0.0000E+00  0.1200E+02  0.1200E+02
    -26.377  0.0000E+00  0.0000E+00  0.1200E+02  0.1200E+02
    -26.181  0.0000E+00  0.0000E+00  0.1200E+02  0.1200E+02
    -25.985  0.0000E+00  0.0000E+00  0.1200E+02  0.1200E+02
    -25.789  0.0000E+00  0.0000E+00  0.1200E+02  0.1200E+02
    -25.594  0.0000E+00  0.0000E+00  0.1200E+02  0.1200E+02
    -25.398  0.0000E+00  0.0000E+00  0.1200E+02  0.1200E+02
    -25.202  0.0000E+00  0.0000E+00  0.1200E+02  0.1200E+02
    -25.006  0.0000E+00  0.0000E+00  0.1200E+02  0.1200E+02
    -24.811  0.0000E+00  0.0000E+00  0.1200E+02  0.1200E+02
    -24.615  0.0000E+00  0.0000E+00  0.1200E+02  0.1200E+02
    -24.419  0.0000E+00  0.0000E+00  0.1200E+02  0.1200E+02
    -24.223  0.0000E+00  0.0000E+00  0.1200E+02  0.1200E+02
    -24.028  0.0000E+00  0.0000E+00  0.1200E+02  0.1200E+02
    -23.832  0.0000E+00  0.0000E+00  0.1200E+02  0.1200E+02
    -23.636  0.0000E+00  0.0000E+00  0.1200E+02  0.1200E+02
    -23.440  0.0000E+00  0.0000E+00  0.1200E+02  0.1200E+02
    -23.244  0.0000E+00  0.0000E+00  0.1200E+02  0.1200E+02
    -23.049  0.0000E+00  0.0000E+00  0.1200E+02  0.1200E+02
    -22.853  0.0000E+00  0.0000E+00  0.1200E+02  0.1200E+02
    -22.657  0.0000E+00  0.0000E+00  0.1200E+02  0.1200E+02
    -22.461  0.0000E+00  0.0000E+00  0.1200E+02  0.1200E+02
    -22.266  0.0000E+00  0.0000E+00  0.1200E+02  0.1200E+02
    -22.070  0.0000E+00  0.0000E+00  0.1200E+02  0.1200E+02
    -21.874  0.0000E+00  0.0000E+00  0.1200E+02  0.1200E+02
    -21.678  0.0000E+00  0.0000E+00  0.1200E+02  0.1200E+02
    -21.483  0.0000E+00  0.0000E+00  0.1200E+02  0.1200E+02
    -21.287  0.0000E+00  0.0000E+00  0.1200E+02  0.1200E+02
    -21.091  0.0000E+00  0.0000E+00  0.1200E+02  0.1200E+02
    -20.895  0.0000E+00  0.0000E+00  0.1200E+02  0.1200E+02
    -20.700  0.0000E+00  0.0000E+00  0.1200E+02  0.1200E+02
    -20.504  0.0000E+00  0.0000E+00  0.1200E+02  0.1200E+02
    -20.308  0.0000E+00  0.0000E+00  0.1200E+02  0.1200E+02
    -20.112  0.0000E+00  0.0000E+00  0.1200E+02  0.1200E+02
    -19.916  0.0000E+00  0.0000E+00  0.1200E+02  0.1200E+02
    -19.721  0.0000E+00  0.0000E+00  0.1200E+02  0.1200E+02
    -19.525  0.0000E+00  0.0000E+00  0.1200E+02  0.1200E+02
    -19.329  0.0000E+00  0.0000E+00  0.1200E+02  0.1200E+02
    -19.133  0.0000E+00  0.0000E+00  0.1200E+02  0.1200E+02
    -18.938  0.0000E+00  0.0000E+00  0.1200E+02  0.1200E+02
    -18.742  0.0000E+00  0.0000E+00  0.1200E+02  0.1200E+02
    -18.546  0.0000E+00  0.0000E+00  0.1200E+02  0.1200E+02
    -18.350  0.0000E+00  0.0000E+00  0.1200E+02  0.1200E+02
    -18.155  0.0000E+00  0.0000E+00  0.1200E+02  0.1200E+02
    -17.959  0.0000E+00  0.0000E+00  0.1200E+02  0.1200E+02
    -17.763  0.0000E+00  0.0000E+00  0.1200E+02  0.1200E+02
    -17.567  0.0000E+00  0.0000E+00  0.1200E+02  0.1200E+02
    -17.371  0.0000E+00  0.0000E+00  0.1200E+02  0.1200E+02
    -17.176  0.0000E+00  0.0000E+00  0.1200E+02  0.1200E+02
    -16.980  0.0000E+00  0.0000E+00  0.1200E+02  0.1200E+02
    -16.784  0.0000E+00  0.0000E+00  0.1200E+02  0.1200E+02
    -16.588  0.0000E+00  0.0000E+00  0.1200E+02  0.1200E+02
    -16.393  0.0000E+00  0.0000E+00  0.1200E+02  0.1200E+02
    -16.197  0.0000E+00  0.0000E+00  0.1200E+02  0.1200E+02
    -16.001  0.0000E+00  0.0000E+00  0.1200E+02  0.1200E+02
    -15.805  0.0000E+00  0.0000E+00  0.1200E+02  0.1200E+02
    -15.610  0.1161E-02  0.1157E-02  0.1200E+02  0.1200E+02
    -15.414  0.3439E+00  0.3437E+00  0.1211E+02  0.1211E+02
    -15.218  0.4143E+00  0.4143E+00  0.1229E+02  0.1229E+02
    -15.022  0.8703E+00  0.8703E+00  0.1270E+02  0.1270E+02
    -14.827  0.7617E+00  0.7616E+00  0.1300E+02  0.1300E+02
    -14.631  0.4812E+00  0.4812E+00  0.1322E+02  0.1322E+02
    -14.435  0.3636E+00  0.3634E+00  0.1351E+02  0.1351E+02
    -14.239  0.1805E+01  0.1805E+01  0.1414E+02  0.1414E+02
    -14.043  0.2874E+01  0.2873E+01  0.1497E+02  0.1497E+02
    -13.848  0.3776E+01  0.3773E+01  0.1607E+02  0.1607E+02
    -13.652  0.5678E+01  0.5682E+01  0.1814E+02  0.1814E+02
    -13.456  0.2142E+01  0.2145E+01  0.1994E+02  0.1994E+02
    -13.260  0.0000E+00  0.0000E+00  0.2000E+02  0.2000E+02
    -13.065  0.0000E+00  0.0000E+00  0.2000E+02  0.2000E+02
    -12.869  0.0000E+00  0.0000E+00  0.2000E+02  0.2000E+02
    -12.673  0.0000E+00  0.0000E+00  0.2000E+02  0.2000E+02
    -12.477  0.0000E+00  0.0000E+00  0.2000E+02  0.2000E+02
    -12.282  0.0000E+00  0.0000E+00  0.2000E+02  0.2000E+02
    -12.086  0.0000E+00  0.0000E+00  0.2000E+02  0.2000E+02
    -11.890  0.0000E+00  0.0000E+00  0.2000E+02  0.2000E+02
    -11.694  0.0000E+00  0.0000E+00  0.2000E+02  0.2000E+02
    -11.498  0.0000E+00  0.0000E+00  0.2000E+02  0.2000E+02
    -11.303  0.0000E+00  0.0000E+00  0.2000E+02  0.2000E+02
    -11.107  0.0000E+00  0.0000E+00  0.2000E+02  0.2000E+02
    -10.911  0.0000E+00  0.0000E+00  0.2000E+02  0.2000E+02
    -10.715  0.0000E+00  0.0000E+00  0.2000E+02  0.2000E+02
    -10.520  0.0000E+00  0.0000E+00  0.2000E+02  0.2000E+02
    -10.324  0.0000E+00  0.0000E+00  0.2000E+02  0.2000E+02
    -10.128  0.0000E+00  0.0000E+00  0.2000E+02  0.2000E+02
     -9.932  0.0000E+00  0.0000E+00  0.2000E+02  0.2000E+02
     -9.737  0.0000E+00  0.0000E+00  0.2000E+02  0.2000E+02
     -9.541  0.0000E+00  0.0000E+00  0.2000E+02  0.2000E+02
     -9.345  0.0000E+00  0.0000E+00  0.2000E+02  0.2000E+02
     -9.149  0.0000E+00  0.0000E+00  0.2000E+02  0.2000E+02
     -8.954  0.0000E+00  0.0000E+00  0.2000E+02  0.2000E+02
     -8.758  0.0000E+00  0.0000E+00  0.2000E+02  0.2000E+02
     -8.562  0.0000E+00  0.0000E+00  0.2000E+02  0.2000E+02
     -8.366  0.0000E+00  0.0000E+00  0.2000E+02  0.2000E+02
     -8.170  0.0000E+00  0.0000E+00  0.2000E+02  0.2000E+02
     -7.975  0.0000E+00  0.0000E+00  0.2000E+02  0.2000E+02
     -7.779  0.0000E+00  0.0000E+00  0.2000E+02  0.2000E+02
     -7.583  0.0000E+00  0.0000E+00  0.2000E+02  0.2000E+02
     -7.387  0.0000E+00  0.0000E+00  0.2000E+02  0.2000E+02
     -7.192  0.0000E+00  0.0000E+00  0.2000E+02  0.2000E+02
     -6.996  0.0000E+00  0.0000E+00  0.2000E+02  0.2000E+02
     -6.800  0.0000E+00  0.0000E+00  0.2000E+02  0.2000E+02
     -6.604  0.0000E+00  0.0000E+00  0.2000E+02  0.2000E+02
     -6.409  0.0000E+00  0.0000E+00  0.2000E+02  0.2000E+02
     -6.213  0.0000E+00  0.0000E+00  0.2000E+02  0.2000E+02
     -6.017  0.0000E+00  0.0000E+00  0.2000E+02  0.2000E+02
     -5.821  0.0000E+00  0.0000E+00  0.2000E+02  0.2000E+02
     -5.626  0.0000E+00  0.0000E+00  0.2000E+02  0.2000E+02
     -5.430  0.0000E+00  0.0000E+00  0.2000E+02  0.2000E+02
     -5.234  0.0000E+00  0.0000E+00  0.2000E+02  0.2000E+02
     -5.038  0.0000E+00  0.0000E+00  0.2000E+02  0.2000E+02
     -4.842  0.0000E+00  0.0000E+00  0.2000E+02  0.2000E+02
     -4.647  0.0000E+00  0.0000E+00  0.2000E+02  0.2000E+02
     -4.451  0.0000E+00  0.0000E+00  0.2000E+02  0.2000E+02
     -4.255  0.0000E+00  0.0000E+00  0.2000E+02  0.2000E+02
     -4.059  0.0000E+00  0.0000E+00  0.2000E+02  0.2000E+02
     -3.864  0.0000E+00  0.0000E+00  0.2000E+02  0.2000E+02
     -3.668  0.0000E+00  0.0000E+00  0.2000E+02  0.2000E+02
     -3.472  0.0000E+00  0.0000E+00  0.2000E+02  0.2000E+02
     -3.276  0.0000E+00  0.0000E+00  0.2000E+02  0.2000E+02
     -3.081  0.1626E-02  0.1607E-02  0.2000E+02  0.2000E+02
     -2.885  0.2554E+00  0.2554E+00  0.2008E+02  0.2008E+02
     -2.689  0.5823E+00  0.5823E+00  0.2033E+02  0.2033E+02
     -2.493  0.1463E+01  0.1461E+01  0.2081E+02  0.2081E+02
     -2.297  0.7801E+00  0.7800E+00  0.2142E+02  0.2142E+02
     -2.102  0.1745E+01  0.1745E+01  0.2223E+02  0.2223E+02
     -1.906  0.2906E+01  0.2905E+01  0.2332E+02  0.2332E+02
     -1.710  0.3092E+01  0.3092E+01  0.2467E+02  0.2467E+02
     -1.514  0.1730E+01  0.1731E+01  0.2602E+02  0.2602E+02
     -1.319  0.2860E+01  0.2861E+01  0.2745E+02  0.2745E+02
     -1.123  0.8032E+00  0.8033E+00  0.2803E+02  0.2803E+02
     -0.927  0.1434E+01  0.1434E+01  0.2869E+02  0.2869E+02
     -0.731  0.2180E+01  0.2180E+01  0.2976E+02  0.2976E+02
     -0.536  0.1389E+01  0.1389E+01  0.3046E+02  0.3046E+02
     -0.340  0.2017E+01  0.2018E+01  0.3140E+02  0.3140E+02
     -0.144  0.1002E+01  0.1002E+01  0.3211E+02  0.3211E+02
      0.052  0.1525E+01  0.1526E+01  0.3275E+02  0.3275E+02
      0.247  0.1601E+01  0.1601E+01  0.3362E+02  0.3362E+02
      0.443  0.2201E+01  0.2201E+01  0.3500E+02  0.3500E+02
      0.639  0.2382E+01  0.2382E+01  0.3603E+02  0.3603E+02
      0.835  0.1352E+01  0.1352E+01  0.3719E+02  0.3719E+02
      1.031  0.1296E+01  0.1296E+01  0.3800E+02  0.3800E+02
      1.226  0.2847E+01  0.2847E+01  0.3913E+02  0.3913E+02
      1.422  0.1664E+01  0.1665E+01  0.3977E+02  0.3977E+02
      1.618  0.9148E+00  0.9146E+00  0.4043E+02  0.4043E+02
      1.814  0.1798E+01  0.1797E+01  0.4137E+02  0.4137E+02
      2.009  0.1945E+01  0.1945E+01  0.4238E+02  0.4238E+02
      2.205  0.1894E+01  0.1894E+01  0.4336E+02  0.4336E+02
      2.401  0.2475E+01  0.2473E+01  0.4452E+02  0.4452E+02
      2.597  0.3656E+01  0.3655E+01  0.4626E+02  0.4626E+02
      2.792  0.4361E+00  0.4358E+00  0.4676E+02  0.4676E+02
      2.988  0.2084E+01  0.2083E+01  0.4762E+02  0.4762E+02
      3.184  0.2189E+00  0.2189E+00  0.4805E+02  0.4805E+02
      3.380  0.1019E+01  0.1017E+01  0.4840E+02  0.4840E+02
      3.576  0.1220E+01  0.1220E+01  0.4905E+02  0.4905E+02
      3.771  0.1733E+01  0.1732E+01  0.4980E+02  0.4980E+02
      3.967  0.0000E+00  0.0000E+00  0.5000E+02  0.5000E+02
      4.163  0.0000E+00  0.0000E+00  0.5000E+02  0.5000E+02
      4.359  0.0000E+00  0.0000E+00  0.5000E+02  0.5000E+02
      4.554  0.0000E+00  0.0000E+00  0.5000E+02  0.5000E+02
      4.750  0.5948E+00  0.5950E+00  0.5016E+02  0.5016E+02
      4.946  0.2015E+01  0.2016E+01  0.5094E+02  0.5094E+02
      5.142  0.1682E+01  0.1682E+01  0.5214E+02  0.5214E+02
      5.337  0.1877E+01  0.1878E+01  0.5325E+02  0.5325E+02
      5.533  0.2420E+01  0.2421E+01  0.5498E+02  0.5498E+02
      5.729  0.7830E+00  0.7833E+00  0.5575E+02  0.5575E+02
      5.925  0.1283E+01  0.1283E+01  0.5622E+02  0.5622E+02
      6.120  0.1590E+01  0.1589E+01  0.5710E+02  0.5710E+02
      6.316  0.1742E+01  0.1742E+01  0.5788E+02  0.5788E+02
      6.512  0.2320E+01  0.2319E+01  0.5880E+02  0.5880E+02
      6.708  0.2072E+01  0.2061E+01  0.5993E+02  0.5993E+02
      6.904  0.0000E+00  0.0000E+00  0.6000E+02  0.6000E+02
      7.099  0.0000E+00  0.0000E+00  0.6000E+02  0.6000E+02
      7.295  0.0000E+00  0.0000E+00  0.6000E+02  0.6000E+02
      7.491  0.0000E+00  0.0000E+00  0.6000E+02  0.6000E+02
      7.687  0.0000E+00  0.0000E+00  0.6000E+02  0.6000E+02
      7.882  0.0000E+00  0.0000E+00  0.6000E+02  0.6000E+02
      8.078  0.0000E+00  0.0000E+00  0.6000E+02  0.6000E+02
      8.274  0.0000E+00  0.0000E+00  0.6000E+02  0.6000E+02
      8.470  0.0000E+00  0.0000E+00  0.6000E+02  0.6000E+02
      8.665  0.0000E+00  0.0000E+00  0.6000E+02  0.6000E+02
      8.861  0.0000E+00  0.0000E+00  0.6000E+02  0.6000E+02
      9.057  0.0000E+00  0.0000E+00  0.6000E+02  0.6000E+02
      9.253  0.0000E+00  0.0000E+00  0.6000E+02  0.6000E+02
      9.448  0.0000E+00  0.0000E+00  0.6000E+02  0.6000E+02
