 vasp.5.4.4.18Apr17-6-g9f103f2a35 (build Nov 08 2022 17:27:33) complex          
  
 executed on             LinuxIFC date 2022.11.22  19:46:42
 running on   16 total cores
 distrk:  each k-point on   16 cores,    1 groups
 distr:  one band on NCORES_PER_BAND=   4 cores,    4 groups


--------------------------------------------------------------------------------------------------------


 INCAR:
 POTCAR:    PAW_PBE Mn_pv 02Aug2007               
 POTCAR:    PAW_PBE O 08Apr2002                   
 POTCAR:    PAW_PBE Mn_pv 02Aug2007               
   VRHFIN =Mn: 3p4s3d                                                           
   LEXCH  = PE                                                                  
   EATOM  =  2025.2664 eV,  148.8529 Ry                                         
                                                                                
   TITEL  = PAW_PBE Mn_pv 02Aug2007                                             
   LULTRA =        F    use ultrasoft PP ?                                      
   IUNSCR =        1    unscreen: 0-lin 1-nonlin 2-no                           
   RPACOR =    2.080    partial core radius                                     
   POMASS =   54.938; ZVAL   =   13.000    mass and valenz                      
   RCORE  =    2.300    outmost cutoff radius                                   
   RWIGS  =    2.500; RWIGS  =    1.323    wigner-seitz radius (au A)           
   ENMAX  =  269.864; ENMIN  =  202.398 eV                                      
   ICORE  =        3    local potential                                         
   LCOR   =        T    correct aug charges                                     
   LPAW   =        T    paw PP                                                  
   EAUG   =  569.085                                                            
   DEXC   =    0.000                                                            
   RMAX   =    2.343    core radius for proj-oper                               
   RAUG   =    1.300    factor for augmentation sphere                          
   RDEP   =    2.338    radius for radial grids                                 
   RDEPT  =    1.798    core radius for aug-charge                              
                                                                                
   Atomic configuration                                                         
    8 entries                                                                   
     n  l   j            E        occ.                                          
     1  0  0.50     -6424.8287   2.0000                                         
     2  0  0.50      -739.1154   2.0000                                         
     2  1  1.50      -625.3949   6.0000                                         
     3  0  0.50       -81.6100   2.0000                                         
     3  1  1.50       -50.4667   6.0000                                         
     3  2  2.50        -3.3745   6.0000                                         
     4  0  0.50        -4.1331   1.0000                                         
     4  3  2.50        -1.3606   0.0000                                         
   Description                                                                  
     l       E           TYP  RCUT    TYP  RCUT                                 
     1    -50.4666628     23  2.000                                             
     1     -1.3605826     23  2.000                                             
     2     -3.3744729     23  2.300                                             
     2     -4.7350555     23  2.300                                             
     0     -4.1331431     23  2.300                                             
     0      7.6656591     23  2.300                                             
     3      9.5240782     23  2.300                                             
  local pseudopotential read in
  partial core-charges read in
  partial kinetic energy density read in
  atomic valenz-charges read in
  non local Contribution for L=           1  read in
    real space projection operators read in
  non local Contribution for L=           1  read in
    real space projection operators read in
  non local Contribution for L=           2  read in
    real space projection operators read in
  non local Contribution for L=           2  read in
    real space projection operators read in
  non local Contribution for L=           0  read in
    real space projection operators read in
  non local Contribution for L=           0  read in
    real space projection operators read in
    PAW grid and wavefunctions read in
 
   number of l-projection  operators is LMAX  =           6
   number of lm-projection operators is LMMAX =          18
 
 POTCAR:    PAW_PBE O 08Apr2002                   
   VRHFIN =O: s2p4                                                              
   LEXCH  = PE                                                                  
   EATOM  =   432.3788 eV,   31.7789 Ry                                         
                                                                                
   TITEL  = PAW_PBE O 08Apr2002                                                 
   LULTRA =        F    use ultrasoft PP ?                                      
   IUNSCR =        1    unscreen: 0-lin 1-nonlin 2-no                           
   RPACOR =    1.200    partial core radius                                     
   POMASS =   16.000; ZVAL   =    6.000    mass and valenz                      
   RCORE  =    1.520    outmost cutoff radius                                   
   RWIGS  =    1.550; RWIGS  =    0.820    wigner-seitz radius (au A)           
   ENMAX  =  400.000; ENMIN  =  300.000 eV                                      
   ICORE  =        2    local potential                                         
   LCOR   =        T    correct aug charges                                     
   LPAW   =        T    paw PP                                                  
   EAUG   =  605.392                                                            
   DEXC   =    0.000                                                            
   RMAX   =    1.553    core radius for proj-oper                               
   RAUG   =    1.300    factor for augmentation sphere                          
   RDEP   =    1.550    radius for radial grids                                 
   RDEPT  =    1.329    core radius for aug-charge                              
                                                                                
   Atomic configuration                                                         
    4 entries                                                                   
     n  l   j            E        occ.                                          
     1  0  0.50      -514.6923   2.0000                                         
     2  0  0.50       -23.9615   2.0000                                         
     2  1  0.50        -9.0305   4.0000                                         
     3  2  1.50        -9.5241   0.0000                                         
   Description                                                                  
     l       E           TYP  RCUT    TYP  RCUT                                 
     0    -23.9615318     23  1.200                                             
     0     -9.5240782     23  1.200                                             
     1     -9.0304911     23  1.520                                             
     1      8.1634956     23  1.520                                             
     2     -9.5240782      7  1.500                                             
  local pseudopotential read in
  partial core-charges read in
  partial kinetic energy density read in
  kinetic energy density of atom read in
  atomic valenz-charges read in
  non local Contribution for L=           0  read in
    real space projection operators read in
  non local Contribution for L=           0  read in
    real space projection operators read in
  non local Contribution for L=           1  read in
    real space projection operators read in
  non local Contribution for L=           1  read in
    real space projection operators read in
    PAW grid and wavefunctions read in
 
   number of l-projection  operators is LMAX  =           4
   number of lm-projection operators is LMMAX =           8
 
  PAW_PBE Mn_pv 02Aug2007               :
 energy of atom  1       EATOM=-2025.2664
 kinetic energy error for atom=    0.0058 (will be added to EATOM!!)
  PAW_PBE O 08Apr2002                   :
 energy of atom  2       EATOM= -432.3788
 kinetic energy error for atom=    0.0208 (will be added to EATOM!!)
 
 
 POSCAR: Mn4 O8                                  
  positions in direct lattice
  velocities in cartesian coordinates
 exchange correlation table for  LEXCH =        8
   RHO(1)=    0.500       N(1)  =     2000
   RHO(2)=  100.500       N(2)  =     4000

 VTST: version 3.2, (02/03/18)

 CHAIN: initializing optimizer
 
 OPT: Using VASP Conjugate-Gradient optimizer
 CHAIN: Read ICHAIN            0
 
 POSCAR: Mn4 O8                                  
  positions in direct lattice
  velocities in cartesian coordinates
 


--------------------------------------------------------------------------------------------------------


 ion  position               nearest neighbor table
   1  0.250  0.017  0.865-  12 1.90  12 1.90   6 1.91   6 1.91  10 1.92   7 1.92   2 2.91   2 2.91

   2  0.750  0.983  0.135-   9 1.90   9 1.90   7 1.91   7 1.91  11 1.92   6 1.92   1 2.91   1 2.91

   3  0.750  0.517  0.635-  10 1.90  10 1.90   5 1.91   5 1.91  12 1.92   8 1.92   4 2.91   4 2.91

   4  0.250  0.483  0.365-  11 1.90  11 1.90   8 1.91   8 1.91   9 1.92   5 1.92   3 2.91   3 2.91

   5  0.250  0.706  0.538-   3 1.91   3 1.91   4 1.92
   6  0.750  0.207  0.962-   1 1.91   1 1.91   2 1.92
   7  0.250  0.794  0.038-   2 1.91   2 1.91   1 1.92
   8  0.750  0.293  0.462-   4 1.91   4 1.91   3 1.92
   9  0.250  0.196  0.217-   2 1.90   2 1.90   4 1.92
  10  0.250  0.304  0.717-   3 1.90   3 1.90   1 1.92
  11  0.750  0.696  0.283-   4 1.90   4 1.90   2 1.92
  12  0.750  0.804  0.783-   1 1.90   1 1.90   3 1.92
 

IMPORTANT INFORMATION: All symmetrisations will be switched off!
NOSYMM: (Re-)initialisation of all symmetry stuff for point group C_1.

 
 

Automatic generation of k-mesh.
 generate k-points for:   10    7    4
Space group operators:
 irot       det(A)        alpha          n_x          n_y          n_z        tau_x        tau_y        tau_z
    1     1.000000     0.000000     1.000000     0.000000     0.000000     0.000000     0.000000     0.000000
 
 Subroutine IBZKPT returns following result:
 ===========================================
 
 Found    142 irreducible k-points:
 
 Following reciprocal coordinates:
            Coordinates               Weight
  0.000000  0.000000  0.000000      1.000000
  0.100000  0.000000 -0.000000      2.000000
  0.200000  0.000000 -0.000000      2.000000
  0.300000  0.000000 -0.000000      2.000000
  0.400000  0.000000 -0.000000      2.000000
  0.500000  0.000000 -0.000000      1.000000
  0.000000  0.142857 -0.000000      2.000000
  0.100000  0.142857 -0.000000      2.000000
  0.200000  0.142857 -0.000000      2.000000
  0.300000  0.142857 -0.000000      2.000000
  0.400000  0.142857 -0.000000      2.000000
  0.500000  0.142857 -0.000000      2.000000
 -0.400000  0.142857  0.000000      2.000000
 -0.300000  0.142857 -0.000000      2.000000
 -0.200000  0.142857 -0.000000      2.000000
 -0.100000  0.142857 -0.000000      2.000000
  0.000000  0.285714 -0.000000      2.000000
  0.100000  0.285714 -0.000000      2.000000
  0.200000  0.285714 -0.000000      2.000000
  0.300000  0.285714 -0.000000      2.000000
  0.400000  0.285714 -0.000000      2.000000
  0.500000  0.285714 -0.000000      2.000000
 -0.400000  0.285714  0.000000      2.000000
 -0.300000  0.285714  0.000000      2.000000
 -0.200000  0.285714 -0.000000      2.000000
 -0.100000  0.285714  0.000000      2.000000
  0.000000  0.428571 -0.000000      2.000000
  0.100000  0.428571  0.000000      2.000000
  0.200000  0.428571 -0.000000      2.000000
  0.300000  0.428571 -0.000000      2.000000
  0.400000  0.428571  0.000000      2.000000
  0.500000  0.428571 -0.000000      2.000000
 -0.400000  0.428571 -0.000000      2.000000
 -0.300000  0.428571  0.000000      2.000000
 -0.200000  0.428571  0.000000      2.000000
 -0.100000  0.428571  0.000000      2.000000
 -0.000000  0.000000  0.250000      2.000000
  0.100000 -0.000000  0.250000      2.000000
  0.200000  0.000000  0.250000      2.000000
  0.300000 -0.000000  0.250000      2.000000
  0.400000  0.000000  0.250000      2.000000
  0.500000  0.000000  0.250000      2.000000
 -0.400000 -0.000000  0.250000      2.000000
 -0.300000 -0.000000  0.250000      2.000000
 -0.200000 -0.000000  0.250000      2.000000
 -0.100000  0.000000  0.250000      2.000000
 -0.000000  0.142857  0.250000      2.000000
  0.100000  0.142857  0.250000      2.000000
  0.200000  0.142857  0.250000      2.000000
  0.300000  0.142857  0.250000      2.000000
  0.400000  0.142857  0.250000      2.000000
  0.500000  0.142857  0.250000      2.000000
 -0.400000  0.142857  0.250000      2.000000
 -0.300000  0.142857  0.250000      2.000000
 -0.200000  0.142857  0.250000      2.000000
 -0.100000  0.142857  0.250000      2.000000
  0.000000  0.285714  0.250000      2.000000
  0.100000  0.285714  0.250000      2.000000
  0.200000  0.285714  0.250000      2.000000
  0.300000  0.285714  0.250000      2.000000
  0.400000  0.285714  0.250000      2.000000
  0.500000  0.285714  0.250000      2.000000
 -0.400000  0.285714  0.250000      2.000000
 -0.300000  0.285714  0.250000      2.000000
 -0.200000  0.285714  0.250000      2.000000
 -0.100000  0.285714  0.250000      2.000000
  0.000000  0.428571  0.250000      2.000000
  0.100000  0.428571  0.250000      2.000000
  0.200000  0.428571  0.250000      2.000000
  0.300000  0.428571  0.250000      2.000000
  0.400000  0.428571  0.250000      2.000000
  0.500000  0.428571  0.250000      2.000000
 -0.400000  0.428571  0.250000      2.000000
 -0.300000  0.428571  0.250000      2.000000
 -0.200000  0.428571  0.250000      2.000000
 -0.100000  0.428571  0.250000      2.000000
 -0.000000 -0.428571  0.250000      2.000000
  0.100000 -0.428571  0.250000      2.000000
  0.200000 -0.428571  0.250000      2.000000
  0.300000 -0.428571  0.250000      2.000000
  0.400000 -0.428571  0.250000      2.000000
  0.500000 -0.428571  0.250000      2.000000
 -0.400000 -0.428571  0.250000      2.000000
 -0.300000 -0.428571  0.250000      2.000000
 -0.200000 -0.428571  0.250000      2.000000
 -0.100000 -0.428571  0.250000      2.000000
 -0.000000 -0.285714  0.250000      2.000000
  0.100000 -0.285714  0.250000      2.000000
  0.200000 -0.285714  0.250000      2.000000
  0.300000 -0.285714  0.250000      2.000000
  0.400000 -0.285714  0.250000      2.000000
  0.500000 -0.285714  0.250000      2.000000
 -0.400000 -0.285714  0.250000      2.000000
 -0.300000 -0.285714  0.250000      2.000000
 -0.200000 -0.285714  0.250000      2.000000
 -0.100000 -0.285714  0.250000      2.000000
 -0.000000 -0.142857  0.250000      2.000000
  0.100000 -0.142857  0.250000      2.000000
  0.200000 -0.142857  0.250000      2.000000
  0.300000 -0.142857  0.250000      2.000000
  0.400000 -0.142857  0.250000      2.000000
  0.500000 -0.142857  0.250000      2.000000
 -0.400000 -0.142857  0.250000      2.000000
 -0.300000 -0.142857  0.250000      2.000000
 -0.200000 -0.142857  0.250000      2.000000
 -0.100000 -0.142857  0.250000      2.000000
 -0.000000  0.000000  0.500000      1.000000
  0.100000  0.000000  0.500000      2.000000
  0.200000 -0.000000  0.500000      2.000000
  0.300000  0.000000  0.500000      2.000000
  0.400000  0.000000  0.500000      2.000000
  0.500000  0.000000  0.500000      1.000000
  0.000000  0.142857  0.500000      2.000000
  0.100000  0.142857  0.500000      2.000000
  0.200000  0.142857  0.500000      2.000000
  0.300000  0.142857  0.500000      2.000000
  0.400000  0.142857  0.500000      2.000000
  0.500000  0.142857  0.500000      2.000000
 -0.400000  0.142857  0.500000      2.000000
 -0.300000  0.142857  0.500000      2.000000
 -0.200000  0.142857  0.500000      2.000000
 -0.100000  0.142857  0.500000      2.000000
  0.000000  0.285714  0.500000      2.000000
  0.100000  0.285714  0.500000      2.000000
  0.200000  0.285714  0.500000      2.000000
  0.300000  0.285714  0.500000      2.000000
  0.400000  0.285714  0.500000      2.000000
  0.500000  0.285714  0.500000      2.000000
 -0.400000  0.285714  0.500000      2.000000
 -0.300000  0.285714  0.500000      2.000000
 -0.200000  0.285714  0.500000      2.000000
 -0.100000  0.285714  0.500000      2.000000
  0.000000  0.428571  0.500000      2.000000
  0.100000  0.428571  0.500000      2.000000
  0.200000  0.428571  0.500000      2.000000
  0.300000  0.428571  0.500000      2.000000
  0.400000  0.428571  0.500000      2.000000
  0.500000  0.428571  0.500000      2.000000
 -0.400000  0.428571  0.500000      2.000000
 -0.300000  0.428571  0.500000      2.000000
 -0.200000  0.428571  0.500000      2.000000
 -0.100000  0.428571  0.500000      2.000000
 
 Following cartesian coordinates:
            Coordinates               Weight
  0.000000  0.000000  0.000000      1.000000
  0.034795  0.000000  0.000000      2.000000
  0.069590  0.000000  0.000000      2.000000
  0.104385  0.000000  0.000000      2.000000
  0.139179  0.000000  0.000000      2.000000
  0.173974  0.000000  0.000000      1.000000
  0.000000  0.031038 -0.000000      2.000000
  0.034795  0.031038 -0.000000      2.000000
  0.069590  0.031038 -0.000000      2.000000
  0.104385  0.031038 -0.000000      2.000000
  0.139179  0.031038 -0.000000      2.000000
  0.173974  0.031038  0.000000      2.000000
 -0.139179  0.031038 -0.000000      2.000000
 -0.104385  0.031038 -0.000000      2.000000
 -0.069590  0.031038 -0.000000      2.000000
 -0.034795  0.031038 -0.000000      2.000000
  0.000000  0.062076 -0.000000      2.000000
  0.034795  0.062076 -0.000000      2.000000
  0.069590  0.062076 -0.000000      2.000000
  0.104385  0.062076 -0.000000      2.000000
  0.139180  0.062076 -0.000000      2.000000
  0.173974  0.062076 -0.000000      2.000000
 -0.139179  0.062076 -0.000000      2.000000
 -0.104384  0.062076 -0.000000      2.000000
 -0.069590  0.062076 -0.000000      2.000000
 -0.034795  0.062076 -0.000000      2.000000
  0.000000  0.093114 -0.000000      2.000000
  0.034795  0.093114 -0.000000      2.000000
  0.069590  0.093114 -0.000000      2.000000
  0.104385  0.093114 -0.000000      2.000000
  0.139180  0.093114 -0.000000      2.000000
  0.173974  0.093114 -0.000000      2.000000
 -0.139179  0.093113 -0.000000      2.000000
 -0.104384  0.093113 -0.000000      2.000000
 -0.069590  0.093114 -0.000000      2.000000
 -0.034795  0.093114 -0.000000      2.000000
  0.000000 -0.000000  0.026714      2.000000
  0.034795 -0.000000  0.026714      2.000000
  0.069590  0.000000  0.026714      2.000000
  0.104385  0.000000  0.026714      2.000000
  0.139179  0.000000  0.026714      2.000000
  0.173974  0.000000  0.026714      2.000000
 -0.139179 -0.000000  0.026714      2.000000
 -0.104385 -0.000000  0.026714      2.000000
 -0.069590 -0.000000  0.026714      2.000000
 -0.034795 -0.000000  0.026714      2.000000
  0.000000  0.031038  0.026714      2.000000
  0.034795  0.031038  0.026714      2.000000
  0.069590  0.031038  0.026714      2.000000
  0.104385  0.031038  0.026714      2.000000
  0.139179  0.031038  0.026714      2.000000
  0.173974  0.031038  0.026714      2.000000
 -0.139179  0.031038  0.026714      2.000000
 -0.104384  0.031038  0.026714      2.000000
 -0.069590  0.031038  0.026714      2.000000
 -0.034795  0.031038  0.026714      2.000000
  0.000000  0.062076  0.026714      2.000000
  0.034795  0.062076  0.026714      2.000000
  0.069590  0.062076  0.026714      2.000000
  0.104385  0.062076  0.026714      2.000000
  0.139180  0.062076  0.026714      2.000000
  0.173974  0.062076  0.026714      2.000000
 -0.139179  0.062075  0.026714      2.000000
 -0.104384  0.062075  0.026714      2.000000
 -0.069590  0.062076  0.026714      2.000000
 -0.034795  0.062076  0.026714      2.000000
  0.000000  0.093114  0.026714      2.000000
  0.034795  0.093114  0.026714      2.000000
  0.069590  0.093114  0.026714      2.000000
  0.104385  0.093114  0.026714      2.000000
  0.139180  0.093114  0.026714      2.000000
  0.173974  0.093114  0.026714      2.000000
 -0.139179  0.093113  0.026714      2.000000
 -0.104384  0.093113  0.026714      2.000000
 -0.069590  0.093113  0.026714      2.000000
 -0.034795  0.093113  0.026714      2.000000
 -0.000000 -0.093114  0.026715      2.000000
  0.034795 -0.093114  0.026715      2.000000
  0.069590 -0.093114  0.026715      2.000000
  0.104384 -0.093114  0.026715      2.000000
  0.139179 -0.093114  0.026715      2.000000
  0.173974 -0.093113  0.026715      2.000000
 -0.139180 -0.093114  0.026715      2.000000
 -0.104385 -0.093114  0.026715      2.000000
 -0.069590 -0.093114  0.026715      2.000000
 -0.034795 -0.093114  0.026715      2.000000
 -0.000000 -0.062076  0.026715      2.000000
  0.034795 -0.062076  0.026715      2.000000
  0.069590 -0.062076  0.026715      2.000000
  0.104385 -0.062076  0.026715      2.000000
  0.139179 -0.062076  0.026715      2.000000
  0.173974 -0.062076  0.026715      2.000000
 -0.139179 -0.062076  0.026714      2.000000
 -0.104385 -0.062076  0.026714      2.000000
 -0.069590 -0.062076  0.026714      2.000000
 -0.034795 -0.062076  0.026715      2.000000
 -0.000000 -0.031038  0.026714      2.000000
  0.034795 -0.031038  0.026714      2.000000
  0.069590 -0.031038  0.026714      2.000000
  0.104385 -0.031038  0.026714      2.000000
  0.139179 -0.031038  0.026715      2.000000
  0.173974 -0.031038  0.026715      2.000000
 -0.139179 -0.031038  0.026714      2.000000
 -0.104385 -0.031038  0.026714      2.000000
 -0.069590 -0.031038  0.026714      2.000000
 -0.034795 -0.031038  0.026714      2.000000
  0.000000 -0.000000  0.053429      1.000000
  0.034795 -0.000000  0.053429      2.000000
  0.069590 -0.000000  0.053429      2.000000
  0.104385 -0.000000  0.053429      2.000000
  0.139179  0.000000  0.053429      2.000000
  0.173974  0.000000  0.053429      1.000000
  0.000000  0.031038  0.053428      2.000000
  0.034795  0.031038  0.053429      2.000000
  0.069590  0.031038  0.053429      2.000000
  0.104385  0.031038  0.053429      2.000000
  0.139180  0.031038  0.053429      2.000000
  0.173974  0.031038  0.053429      2.000000
 -0.139179  0.031037  0.053428      2.000000
 -0.104384  0.031038  0.053428      2.000000
 -0.069590  0.031038  0.053428      2.000000
 -0.034795  0.031038  0.053428      2.000000
  0.000000  0.062076  0.053428      2.000000
  0.034795  0.062076  0.053428      2.000000
  0.069590  0.062076  0.053428      2.000000
  0.104385  0.062076  0.053428      2.000000
  0.139180  0.062076  0.053428      2.000000
  0.173974  0.062076  0.053428      2.000000
 -0.139179  0.062075  0.053428      2.000000
 -0.104384  0.062075  0.053428      2.000000
 -0.069590  0.062075  0.053428      2.000000
 -0.034795  0.062075  0.053428      2.000000
  0.000000  0.093113  0.053428      2.000000
  0.034795  0.093113  0.053428      2.000000
  0.069590  0.093114  0.053428      2.000000
  0.104385  0.093114  0.053428      2.000000
  0.139180  0.093114  0.053428      2.000000
  0.173974  0.093114  0.053428      2.000000
 -0.139179  0.093113  0.053428      2.000000
 -0.104384  0.093113  0.053428      2.000000
 -0.069590  0.093113  0.053428      2.000000
 -0.034795  0.093113  0.053428      2.000000
 


--------------------------------------------------------------------------------------------------------




 Dimension of arrays:
   k-points           NKPTS =    142   k-points in BZ     NKDIM =    142   number of bands    NBANDS=     60
   number of dos      NEDOS =    301   number of ions     NIONS =     12
   non local maximal  LDIM  =      6   non local SUM 2l+1 LMDIM =     18
   total plane-waves  NPLWV =  60480
   max r-space proj   IRMAX =      1   max aug-charges    IRDMAX=  15022
   dimension x,y,z NGX =    24 NGY =   36 NGZ =   70
   dimension x,y,z NGXF=    48 NGYF=   72 NGZF=  140
   support grid    NGXF=    48 NGYF=   72 NGZF=  140
   ions per type =               4   8
   NGX,Y,Z   is equivalent  to a cutoff of  13.88, 13.00, 12.44 a.u.
   NGXF,Y,Z  is equivalent  to a cutoff of  27.77, 26.01, 24.87 a.u.

 SYSTEM =  unknown system                          
 POSCAR =  Mn4 O8                                  

 Startparameter for this run:
   NWRITE =      2    write-flag & timer
   PREC   = accura    normal or accurate (medium, high low for compatibility)
   ISTART =      1    job   : 0-new  1-cont  2-samecut
   ICHARG =      0    charge: 1-file 2-atom 10-const
   ISPIN  =      2    spin polarized calculation?
   LNONCOLLINEAR =      F non collinear calculations
   LSORBIT =      F    spin-orbit coupling
   INIWAV =      1    electr: 0-lowe 1-rand  2-diag
   LASPH  =      T    aspherical Exc in radial PAW
   METAGGA=      F    non-selfconsistent MetaGGA calc.

 Electronic Relaxation 1
   ENCUT  =  520.0 eV  38.22 Ry    6.18 a.u.   5.34  8.56 17.40*2*pi/ulx,y,z
   ENINI  =  520.0     initial cutoff
   ENAUG  = 1040.0 eV  augmentation charge cutoff
   NELM   =    100;   NELMIN=  2; NELMDL=  0     # of ELM steps 
   EDIFF  = 0.1E-05   stopping-criterion for ELM
   LREAL  =      F    real-space projection
   NLSPLINE    = F    spline interpolate recip. space projectors
   LCOMPAT=      F    compatible to vasp.4.4
   GGA_COMPAT  = T    GGA compatible to vasp.4.4-vasp.4.6
   LMAXPAW     = -100 max onsite density
   LMAXMIX     =    4 max onsite mixed and CHGCAR
   VOSKOWN=      0    Vosko Wilk Nusair interpolation
   ROPT   =    0.00000   0.00000
 Ionic relaxation
   EDIFFG = -.3E-01   stopping-criterion for IOM
   NSW    =      0    number of steps for IOM
   NBLOCK =      1;   KBLOCK =      1    inner block; outer block 
   IBRION =     -1    ionic relax: 0-MD 1-quasi-New 2-CG
   NFREE  =      1    steps in history (QN), initial steepest desc. (CG)
   ISIF   =      3    stress and relaxation
   IWAVPR =     10    prediction:  0-non 1-charg 2-wave 3-comb
   ISYM   =      0    0-nonsym 1-usesym 2-fastsym
   LCORR  =      T    Harris-Foulkes like correction to forces

   POTIM  = 0.5000    time-step for ionic-motion
   TEIN   =    0.0    initial temperature
   TEBEG  =    0.0;   TEEND  =   0.0 temperature during run
   SMASS  =  -3.00    Nose mass-parameter (am)
   estimated Nose-frequenzy (Omega)   =  0.10E-29 period in steps =****** mass=  -0.189E-27a.u.
   SCALEE = 1.0000    scale energy and forces
   NPACO  =    256;   APACO  = 16.0  distance and # of slots for P.C.
   PSTRESS=    0.0 pullay stress

  Mass of Ions in am
   POMASS =  54.94 16.00
  Ionic Valenz
   ZVAL   =  13.00  6.00
  Atomic Wigner-Seitz radii
   RWIGS  =  -1.00 -1.00
  virtual crystal weights 
   VCA    =   1.00  1.00
   NELECT =     100.0000    total number of electrons
   NUPDOWN=      -1.0000    fix difference up-down

 DOS related values:
   EMIN   =  10.00;   EMAX   =-10.00  energy-range for DOS
   EFERMI =   0.00
   ISMEAR =     0;   SIGMA  =   0.01  broadening in eV -4-tet -1-fermi 0-gaus

 Electronic relaxation 2 (details)
   IALGO  =     68    algorithm
   LDIAG  =      T    sub-space diagonalisation (order eigenvalues)
   LSUBROT=      F    optimize rotation matrix (better conditioning)
   TURBO    =      0    0=normal 1=particle mesh
   IRESTART =      0    0=no restart 2=restart with 2 vectors
   NREBOOT  =      0    no. of reboots
   NMIN     =      0    reboot dimension
   EREF     =   0.00    reference energy to select bands
   IMIX   =      4    mixing-type and parameters
     AMIX     =   0.40;   BMIX     =  1.00
     AMIX_MAG =   1.60;   BMIX_MAG =  1.00
     AMIN     =   0.10
     WC   =   100.;   INIMIX=   1;  MIXPRE=   1;  MAXMIX= -45

 Intra band minimization:
   WEIMIN = 0.0000     energy-eigenvalue tresh-hold
   EBREAK =  0.42E-08  absolut break condition
   DEPER  =   0.30     relativ break condition  

   TIME   =   0.40     timestep for ELM

  volume/ion in A,a.u.               =      10.32        69.62
  Fermi-wavevector in a.u.,A,eV,Ry     =   1.524677  2.881221 31.628633  2.324639
  Thomas-Fermi vector in A             =   2.632951
 
 Write flags
   LWAVE        =      T    write WAVECAR
   LDOWNSAMPLE  =      F    k-point downsampling of WAVECAR
   LCHARG       =      T    write CHGCAR
   LVTOT        =      F    write LOCPOT, total local potential
   LVHAR        =      T    write LOCPOT, Hartree potential only
   LELF         =      F    write electronic localiz. function (ELF)
   LORBIT       =      0    0 simple, 1 ext, 2 COOP (PROOUT), +10 PAW based schemes


 Dipole corrections
   LMONO  =      F    monopole corrections only (constant potential shift)
   LDIPOL =      F    correct potential (dipole corrections)
   IDIPOL =      0    1-x, 2-y, 3-z, 4-all directions 
   EPSILON=  1.0000000 bulk dielectric constant

 Exchange correlation treatment:
   GGA     =    PE    GGA type
   LEXCH   =     8    internal setting for exchange type
   VOSKOWN=      0    Vosko Wilk Nusair interpolation
   LHFCALC =     F    Hartree Fock is set to
   LHFONE  =     F    Hartree Fock one center treatment
   AEXX    =    0.0000 exact exchange contribution

 Linear response parameters
   LEPSILON=     F    determine dielectric tensor
   LRPA    =     F    only Hartree local field effects (RPA)
   LNABLA  =     F    use nabla operator in PAW spheres
   LVEL    =     F    velocity operator in full k-point grid
   LINTERFAST=   F  fast interpolation
   KINTER  =     0    interpolate to denser k-point grid
   CSHIFT  =0.1000    complex shift for real part using Kramers Kronig
   OMEGAMAX=  -1.0    maximum frequency
   DEG_THRESHOLD= 0.2000000E-02 threshold for treating states as degnerate
   RTIME   =   -0.100 relaxation time in fs
  (WPLASMAI=    0.000 imaginary part of plasma frequency in eV, 0.658/RTIME)
   DFIELD  = 0.0000000 0.0000000 0.0000000 field for delta impulse in time
 
 Orbital magnetization related:
   ORBITALMAG=     F  switch on orbital magnetization
   LCHIMAG   =     F  perturbation theory with respect to B field
   DQ        =  0.001000  dq finite difference perturbation B field
   LLRAUG    =     F  two centre corrections for induced B field



--------------------------------------------------------------------------------------------------------


 Static calculation
 charge density and potential will be updated during run
 spin polarized calculation
 RMM-DIIS sequential band-by-band and
  variant of blocked Davidson during initial phase
 perform sub-space diagonalisation
    before iterative eigenvector-optimisation
 modified Broyden-mixing scheme, WC =      100.0
 initial mixing is a Kerker type mixing with AMIX =  0.4000 and BMIX =      1.0000
 Hartree-type preconditioning will be used
 using additional bands           10
 reciprocal scheme for non local part
 use partial core corrections
 calculate Harris-corrections to forces 
   (improved forces if not selfconsistent)
 use gradient corrections 
 use of overlap-Matrix (Vanderbilt PP)
 Gauss-broadening in eV      SIGMA  =   0.01


--------------------------------------------------------------------------------------------------------


  energy-cutoff  :      520.00
  volume of cell :      123.79
      direct lattice vectors                 reciprocal lattice vectors
     2.873988171 -0.000003827 -0.000003143     0.347948544  0.000000522  0.000000263
    -0.000006910  4.602672104  0.000017294     0.000000289  0.217265097 -0.000000808
    -0.000007063  0.000034806  9.358283868     0.000000117 -0.000000402  0.106857199

  length of vectors
     2.873988171  4.602672104  9.358283868     0.347948544  0.217265097  0.106857199


 
 old parameters found on file WAVECAR:
  energy-cutoff  :      520.00
  volume of cell :      126.04
      direct lattice vectors                 reciprocal lattice vectors
     2.916331000  0.000000000  0.000000000     0.342896605  0.000000075 -0.000000073
    -0.000001000  4.580966000  0.000145000     0.000000000  0.218294570 -0.000006941
     0.000002000  0.000300000  9.434393000     0.000000000 -0.000003355  0.105995161

  length of vectors

 
 k-points in units of 2pi/SCALE and weight: read from INCAR                         
   0.00000000  0.00000000  0.00000000       0.004
   0.03479485  0.00000005  0.00000003       0.007
   0.06958971  0.00000010  0.00000005       0.007
   0.10438456  0.00000016  0.00000008       0.007
   0.13917942  0.00000021  0.00000011       0.007
   0.17397427  0.00000026  0.00000013       0.004
   0.00000004  0.03103787 -0.00000012       0.007
   0.03479490  0.03103792 -0.00000009       0.007
   0.06958975  0.03103798 -0.00000006       0.007
   0.10438460  0.03103803 -0.00000004       0.007
   0.13917946  0.03103808 -0.00000001       0.007
   0.17397431  0.03103813  0.00000002       0.007
  -0.13917938  0.03103766 -0.00000022       0.007
  -0.10438452  0.03103771 -0.00000019       0.007
  -0.06958967  0.03103777 -0.00000017       0.007
  -0.03479481  0.03103782 -0.00000014       0.007
   0.00000008  0.06207574 -0.00000023       0.007
   0.03479494  0.06207579 -0.00000020       0.007
   0.06958979  0.06207585 -0.00000018       0.007
   0.10438465  0.06207590 -0.00000015       0.007
   0.13917950  0.06207595 -0.00000013       0.007
   0.17397435  0.06207600 -0.00000010       0.007
  -0.13917933  0.06207553 -0.00000034       0.007
  -0.10438448  0.06207559 -0.00000031       0.007
  -0.06958963  0.06207564 -0.00000028       0.007
  -0.03479477  0.06207569 -0.00000026       0.007
   0.00000012  0.09311361 -0.00000035       0.007
   0.03479498  0.09311367 -0.00000032       0.007
   0.06958983  0.09311372 -0.00000029       0.007
   0.10438469  0.09311377 -0.00000027       0.007
   0.13917954  0.09311382 -0.00000024       0.007
   0.17397440  0.09311387 -0.00000022       0.007
  -0.13917929  0.09311340 -0.00000045       0.007
  -0.10438444  0.09311346 -0.00000043       0.007
  -0.06958958  0.09311351 -0.00000040       0.007
  -0.03479473  0.09311356 -0.00000037       0.007
   0.00000003 -0.00000010  0.02671430       0.007
   0.03479488 -0.00000005  0.02671433       0.007
   0.06958974  0.00000000  0.02671435       0.007
   0.10438459  0.00000006  0.02671438       0.007
   0.13917945  0.00000011  0.02671440       0.007
   0.17397430  0.00000016  0.02671443       0.007
  -0.13917939 -0.00000031  0.02671419       0.007
  -0.10438453 -0.00000026  0.02671422       0.007
  -0.06958968 -0.00000020  0.02671425       0.007
  -0.03479483 -0.00000015  0.02671427       0.007
   0.00000007  0.03103777  0.02671418       0.007
   0.03479492  0.03103782  0.02671421       0.007
   0.06958978  0.03103788  0.02671424       0.007
   0.10438463  0.03103793  0.02671426       0.007
   0.13917949  0.03103798  0.02671429       0.007
   0.17397434  0.03103803  0.02671432       0.007
  -0.13917935  0.03103756  0.02671408       0.007
  -0.10438449  0.03103761  0.02671411       0.007
  -0.06958964  0.03103767  0.02671413       0.007
  -0.03479478  0.03103772  0.02671416       0.007
   0.00000011  0.06207564  0.02671407       0.007
   0.03479497  0.06207569  0.02671410       0.007
   0.06958982  0.06207575  0.02671412       0.007
   0.10438468  0.06207580  0.02671415       0.007
   0.13917953  0.06207585  0.02671417       0.007
   0.17397438  0.06207590  0.02671420       0.007
  -0.13917931  0.06207543  0.02671396       0.007
  -0.10438445  0.06207548  0.02671399       0.007
  -0.06958960  0.06207554  0.02671402       0.007
  -0.03479474  0.06207559  0.02671404       0.007
   0.00000015  0.09311351  0.02671395       0.007
   0.03479501  0.09311356  0.02671398       0.007
   0.06958986  0.09311362  0.02671401       0.007
   0.10438472  0.09311367  0.02671403       0.007
   0.13917957  0.09311372  0.02671406       0.007
   0.17397443  0.09311377  0.02671408       0.007
  -0.13917926  0.09311330  0.02671385       0.007
  -0.10438441  0.09311336  0.02671387       0.007
  -0.06958956  0.09311341  0.02671390       0.007
  -0.03479470  0.09311346  0.02671393       0.007
  -0.00000009 -0.09311371  0.02671465       0.007
   0.03479476 -0.09311366  0.02671467       0.007
   0.06958961 -0.09311361  0.02671470       0.007
   0.10438447 -0.09311356  0.02671472       0.007
   0.13917932 -0.09311350  0.02671475       0.007
   0.17397418 -0.09311345  0.02671478       0.007
  -0.13917951 -0.09311392  0.02671454       0.007
  -0.10438466 -0.09311387  0.02671457       0.007
  -0.06958980 -0.09311382  0.02671459       0.007
  -0.03479495 -0.09311377  0.02671462       0.007
  -0.00000005 -0.06207584  0.02671453       0.007
   0.03479480 -0.06207579  0.02671456       0.007
   0.06958966 -0.06207574  0.02671458       0.007
   0.10438451 -0.06207569  0.02671461       0.007
   0.13917936 -0.06207563  0.02671464       0.007
   0.17397422 -0.06207558  0.02671466       0.007
  -0.13917947 -0.06207605  0.02671443       0.007
  -0.10438462 -0.06207600  0.02671445       0.007
  -0.06958976 -0.06207595  0.02671448       0.007
  -0.03479491 -0.06207589  0.02671450       0.007
  -0.00000001 -0.03103797  0.02671442       0.007
   0.03479484 -0.03103792  0.02671444       0.007
   0.06958970 -0.03103787  0.02671447       0.007
   0.10438455 -0.03103781  0.02671449       0.007
   0.13917941 -0.03103776  0.02671452       0.007
   0.17397426 -0.03103771  0.02671455       0.007
  -0.13917943 -0.03103818  0.02671431       0.007
  -0.10438458 -0.03103813  0.02671434       0.007
  -0.06958972 -0.03103808  0.02671436       0.007
  -0.03479487 -0.03103802  0.02671439       0.007
   0.00000006 -0.00000020  0.05342860       0.004
   0.03479491 -0.00000015  0.05342863       0.007
   0.06958977 -0.00000010  0.05342865       0.007
   0.10438462 -0.00000004  0.05342868       0.007
   0.13917948  0.00000001  0.05342870       0.007
   0.17397433  0.00000006  0.05342873       0.004
   0.00000010  0.03103767  0.05342848       0.007
   0.03479495  0.03103772  0.05342851       0.007
   0.06958981  0.03103777  0.05342854       0.007
   0.10438466  0.03103783  0.05342856       0.007
   0.13917952  0.03103788  0.05342859       0.007
   0.17397437  0.03103793  0.05342862       0.007
  -0.13917932  0.03103746  0.05342838       0.007
  -0.10438446  0.03103751  0.05342841       0.007
  -0.06958961  0.03103757  0.05342843       0.007
  -0.03479475  0.03103762  0.05342846       0.007
   0.00000014  0.06207554  0.05342837       0.007
   0.03479500  0.06207559  0.05342839       0.007
   0.06958985  0.06207565  0.05342842       0.007
   0.10438470  0.06207570  0.05342845       0.007
   0.13917956  0.06207575  0.05342847       0.007
   0.17397441  0.06207580  0.05342850       0.007
  -0.13917928  0.06207533  0.05342826       0.007
  -0.10438442  0.06207538  0.05342829       0.007
  -0.06958957  0.06207544  0.05342832       0.007
  -0.03479471  0.06207549  0.05342834       0.007
   0.00000018  0.09311341  0.05342825       0.007
   0.03479504  0.09311346  0.05342828       0.007
   0.06958989  0.09311352  0.05342831       0.007
   0.10438475  0.09311357  0.05342833       0.007
   0.13917960  0.09311362  0.05342836       0.007
   0.17397445  0.09311367  0.05342838       0.007
  -0.13917924  0.09311320  0.05342815       0.007
  -0.10438438  0.09311326  0.05342817       0.007
  -0.06958953  0.09311331  0.05342820       0.007
  -0.03479467  0.09311336  0.05342823       0.007
 
 k-points in reciprocal lattice and weights: read from INCAR                         
   0.00000000  0.00000000  0.00000000       0.004
   0.10000000  0.00000000 -0.00000000       0.007
   0.20000000  0.00000000 -0.00000000       0.007
   0.30000000  0.00000000 -0.00000000       0.007
   0.40000000  0.00000000 -0.00000000       0.007
   0.50000000  0.00000000 -0.00000000       0.004
   0.00000000  0.14285714 -0.00000000       0.007
   0.10000000  0.14285714 -0.00000000       0.007
   0.20000000  0.14285714 -0.00000000       0.007
   0.30000000  0.14285714 -0.00000000       0.007
   0.40000000  0.14285714 -0.00000000       0.007
   0.50000000  0.14285714 -0.00000000       0.007
  -0.40000000  0.14285714  0.00000000       0.007
  -0.30000000  0.14285714 -0.00000000       0.007
  -0.20000000  0.14285714 -0.00000000       0.007
  -0.10000000  0.14285714 -0.00000000       0.007
   0.00000000  0.28571429 -0.00000000       0.007
   0.10000000  0.28571429 -0.00000000       0.007
   0.20000000  0.28571429 -0.00000000       0.007
   0.30000000  0.28571429 -0.00000000       0.007
   0.40000000  0.28571429 -0.00000000       0.007
   0.50000000  0.28571429 -0.00000000       0.007
  -0.40000000  0.28571429  0.00000000       0.007
  -0.30000000  0.28571429  0.00000000       0.007
  -0.20000000  0.28571429 -0.00000000       0.007
  -0.10000000  0.28571429  0.00000000       0.007
   0.00000000  0.42857143 -0.00000000       0.007
   0.10000000  0.42857143  0.00000000       0.007
   0.20000000  0.42857143 -0.00000000       0.007
   0.30000000  0.42857143 -0.00000000       0.007
   0.40000000  0.42857143  0.00000000       0.007
   0.50000000  0.42857143 -0.00000000       0.007
  -0.40000000  0.42857143 -0.00000000       0.007
  -0.30000000  0.42857143  0.00000000       0.007
  -0.20000000  0.42857143  0.00000000       0.007
  -0.10000000  0.42857143  0.00000000       0.007
  -0.00000000  0.00000000  0.25000000       0.007
   0.10000000 -0.00000000  0.25000000       0.007
   0.20000000  0.00000000  0.25000000       0.007
   0.30000000 -0.00000000  0.25000000       0.007
   0.40000000  0.00000000  0.25000000       0.007
   0.50000000  0.00000000  0.25000000       0.007
  -0.40000000 -0.00000000  0.25000000       0.007
  -0.30000000 -0.00000000  0.25000000       0.007
  -0.20000000 -0.00000000  0.25000000       0.007
  -0.10000000  0.00000000  0.25000000       0.007
  -0.00000000  0.14285714  0.25000000       0.007
   0.10000000  0.14285714  0.25000000       0.007
   0.20000000  0.14285714  0.25000000       0.007
   0.30000000  0.14285714  0.25000000       0.007
   0.40000000  0.14285714  0.25000000       0.007
   0.50000000  0.14285714  0.25000000       0.007
  -0.40000000  0.14285714  0.25000000       0.007
  -0.30000000  0.14285714  0.25000000       0.007
  -0.20000000  0.14285714  0.25000000       0.007
  -0.10000000  0.14285714  0.25000000       0.007
   0.00000000  0.28571429  0.25000000       0.007
   0.10000000  0.28571429  0.25000000       0.007
   0.20000000  0.28571429  0.25000000       0.007
   0.30000000  0.28571429  0.25000000       0.007
   0.40000000  0.28571429  0.25000000       0.007
   0.50000000  0.28571429  0.25000000       0.007
  -0.40000000  0.28571429  0.25000000       0.007
  -0.30000000  0.28571429  0.25000000       0.007
  -0.20000000  0.28571429  0.25000000       0.007
  -0.10000000  0.28571429  0.25000000       0.007
   0.00000000  0.42857143  0.25000000       0.007
   0.10000000  0.42857143  0.25000000       0.007
   0.20000000  0.42857143  0.25000000       0.007
   0.30000000  0.42857143  0.25000000       0.007
   0.40000000  0.42857143  0.25000000       0.007
   0.50000000  0.42857143  0.25000000       0.007
  -0.40000000  0.42857143  0.25000000       0.007
  -0.30000000  0.42857143  0.25000000       0.007
  -0.20000000  0.42857143  0.25000000       0.007
  -0.10000000  0.42857143  0.25000000       0.007
  -0.00000000 -0.42857143  0.25000000       0.007
   0.10000000 -0.42857143  0.25000000       0.007
   0.20000000 -0.42857143  0.25000000       0.007
   0.30000000 -0.42857143  0.25000000       0.007
   0.40000000 -0.42857143  0.25000000       0.007
   0.50000000 -0.42857143  0.25000000       0.007
  -0.40000000 -0.42857143  0.25000000       0.007
  -0.30000000 -0.42857143  0.25000000       0.007
  -0.20000000 -0.42857143  0.25000000       0.007
  -0.10000000 -0.42857143  0.25000000       0.007
  -0.00000000 -0.28571429  0.25000000       0.007
   0.10000000 -0.28571429  0.25000000       0.007
   0.20000000 -0.28571429  0.25000000       0.007
   0.30000000 -0.28571429  0.25000000       0.007
   0.40000000 -0.28571429  0.25000000       0.007
   0.50000000 -0.28571429  0.25000000       0.007
  -0.40000000 -0.28571429  0.25000000       0.007
  -0.30000000 -0.28571429  0.25000000       0.007
  -0.20000000 -0.28571429  0.25000000       0.007
  -0.10000000 -0.28571429  0.25000000       0.007
  -0.00000000 -0.14285714  0.25000000       0.007
   0.10000000 -0.14285714  0.25000000       0.007
   0.20000000 -0.14285714  0.25000000       0.007
   0.30000000 -0.14285714  0.25000000       0.007
   0.40000000 -0.14285714  0.25000000       0.007
   0.50000000 -0.14285714  0.25000000       0.007
  -0.40000000 -0.14285714  0.25000000       0.007
  -0.30000000 -0.14285714  0.25000000       0.007
  -0.20000000 -0.14285714  0.25000000       0.007
  -0.10000000 -0.14285714  0.25000000       0.007
  -0.00000000  0.00000000  0.50000000       0.004
   0.10000000  0.00000000  0.50000000       0.007
   0.20000000 -0.00000000  0.50000000       0.007
   0.30000000  0.00000000  0.50000000       0.007
   0.40000000  0.00000000  0.50000000       0.007
   0.50000000  0.00000000  0.50000000       0.004
   0.00000000  0.14285714  0.50000000       0.007
   0.10000000  0.14285714  0.50000000       0.007
   0.20000000  0.14285714  0.50000000       0.007
   0.30000000  0.14285714  0.50000000       0.007
   0.40000000  0.14285714  0.50000000       0.007
   0.50000000  0.14285714  0.50000000       0.007
  -0.40000000  0.14285714  0.50000000       0.007
  -0.30000000  0.14285714  0.50000000       0.007
  -0.20000000  0.14285714  0.50000000       0.007
  -0.10000000  0.14285714  0.50000000       0.007
   0.00000000  0.28571429  0.50000000       0.007
   0.10000000  0.28571429  0.50000000       0.007
   0.20000000  0.28571429  0.50000000       0.007
   0.30000000  0.28571429  0.50000000       0.007
   0.40000000  0.28571429  0.50000000       0.007
   0.50000000  0.28571429  0.50000000       0.007
  -0.40000000  0.28571429  0.50000000       0.007
  -0.30000000  0.28571429  0.50000000       0.007
  -0.20000000  0.28571429  0.50000000       0.007
  -0.10000000  0.28571429  0.50000000       0.007
   0.00000000  0.42857143  0.50000000       0.007
   0.10000000  0.42857143  0.50000000       0.007
   0.20000000  0.42857143  0.50000000       0.007
   0.30000000  0.42857143  0.50000000       0.007
   0.40000000  0.42857143  0.50000000       0.007
   0.50000000  0.42857143  0.50000000       0.007
  -0.40000000  0.42857143  0.50000000       0.007
  -0.30000000  0.42857143  0.50000000       0.007
  -0.20000000  0.42857143  0.50000000       0.007
  -0.10000000  0.42857143  0.50000000       0.007
 
 position of ions in fractional coordinates (direct lattice) 
   0.24999997  0.01657458  0.86498272
   0.75000044  0.98347509  0.13502990
   0.75000396  0.51652950  0.63502687
   0.24999982  0.48342323  0.36498065
   0.25000110  0.70644893  0.53785004
   0.74999970  0.20650615  0.96215373
   0.24999897  0.79355036  0.03785363
   0.75000022  0.29348800  0.46215526
   0.24999840  0.19639349  0.21683188
   0.25000023  0.30361118  0.71683368
   0.74999983  0.69634440  0.28315235
   0.74999735  0.80365610  0.78315027
 
 position of ions in cartesian coordinates  (Angst):
   0.71849074  0.07631648  8.09475338
   2.15548465  4.52661517  1.26366279
   2.15549445  2.37743515  5.94276833
   0.71849062  2.22505037  3.41560015
   0.71849152  3.25157053  5.03336478
   2.15548205  0.95051072  9.00410897
   0.71848832  3.65245246  0.35425794
   2.15548646  1.35084225  4.32498287
   0.71848956  0.90394142  2.02917687
   0.71849054  1.39744668  6.70833756
   2.15548384  3.20505195  2.64982977
   2.15547243  3.69898991  7.32895407
 


--------------------------------------------------------------------------------------------------------


 k-point  1 :   0.0000 0.0000 0.0000  plane waves:    3333
 k-point  2 :   0.1000 0.0000-0.0000  plane waves:    3351
 k-point  3 :   0.2000 0.0000-0.0000  plane waves:    3331
 k-point  4 :   0.3000 0.0000-0.0000  plane waves:    3341
 k-point  5 :   0.4000 0.0000-0.0000  plane waves:    3338
 k-point  6 :   0.5000 0.0000-0.0000  plane waves:    3350
 k-point  7 :   0.0000 0.1429-0.0000  plane waves:    3341
 k-point  8 :   0.1000 0.1429-0.0000  plane waves:    3334
 k-point  9 :   0.2000 0.1429-0.0000  plane waves:    3338
 k-point 10 :   0.3000 0.1429-0.0000  plane waves:    3331
 k-point 11 :   0.4000 0.1429-0.0000  plane waves:    3344
 k-point 12 :   0.5000 0.1429-0.0000  plane waves:    3354
 k-point 13 :  -0.4000 0.1429 0.0000  plane waves:    3344
 k-point 14 :  -0.3000 0.1429-0.0000  plane waves:    3331
 k-point 15 :  -0.2000 0.1429-0.0000  plane waves:    3338
 k-point 16 :  -0.1000 0.1429-0.0000  plane waves:    3334
 k-point 17 :   0.0000 0.2857-0.0000  plane waves:    3353
 k-point 18 :   0.1000 0.2857-0.0000  plane waves:    3356
 k-point 19 :   0.2000 0.2857-0.0000  plane waves:    3335
 k-point 20 :   0.3000 0.2857-0.0000  plane waves:    3332
 k-point 21 :   0.4000 0.2857-0.0000  plane waves:    3313
 k-point 22 :   0.5000 0.2857-0.0000  plane waves:    3322
 k-point 23 :  -0.4000 0.2857 0.0000  plane waves:    3313
 k-point 24 :  -0.3000 0.2857 0.0000  plane waves:    3332
 k-point 25 :  -0.2000 0.2857-0.0000  plane waves:    3335
 k-point 26 :  -0.1000 0.2857 0.0000  plane waves:    3356
 k-point 27 :   0.0000 0.4286-0.0000  plane waves:    3371
 k-point 28 :   0.1000 0.4286 0.0000  plane waves:    3332
 k-point 29 :   0.2000 0.4286-0.0000  plane waves:    3322
 k-point 30 :   0.3000 0.4286-0.0000  plane waves:    3320
 k-point 31 :   0.4000 0.4286 0.0000  plane waves:    3315
 k-point 32 :   0.5000 0.4286-0.0000  plane waves:    3322
 k-point 33 :  -0.4000 0.4286-0.0000  plane waves:    3315
 k-point 34 :  -0.3000 0.4286 0.0000  plane waves:    3320
 k-point 35 :  -0.2000 0.4286 0.0000  plane waves:    3322
 k-point 36 :  -0.1000 0.4286 0.0000  plane waves:    3332
 k-point 37 :  -0.0000 0.0000 0.2500  plane waves:    3339
 k-point 38 :   0.1000-0.0000 0.2500  plane waves:    3337
 k-point 39 :   0.2000 0.0000 0.2500  plane waves:    3339
 k-point 40 :   0.3000-0.0000 0.2500  plane waves:    3342
 k-point 41 :   0.4000 0.0000 0.2500  plane waves:    3347
 k-point 42 :   0.5000 0.0000 0.2500  plane waves:    3341
 k-point 43 :  -0.4000-0.0000 0.2500  plane waves:    3347
 k-point 44 :  -0.3000-0.0000 0.2500  plane waves:    3342
 k-point 45 :  -0.2000-0.0000 0.2500  plane waves:    3339
 k-point 46 :  -0.1000 0.0000 0.2500  plane waves:    3337
 k-point 47 :  -0.0000 0.1429 0.2500  plane waves:    3343
 k-point 48 :   0.1000 0.1429 0.2500  plane waves:    3345
 k-point 49 :   0.2000 0.1429 0.2500  plane waves:    3338
 k-point 50 :   0.3000 0.1429 0.2500  plane waves:    3332
 k-point 51 :   0.4000 0.1429 0.2500  plane waves:    3329
 k-point 52 :   0.5000 0.1429 0.2500  plane waves:    3330
 k-point 53 :  -0.4000 0.1429 0.2500  plane waves:    3329
 k-point 54 :  -0.3000 0.1429 0.2500  plane waves:    3332
 k-point 55 :  -0.2000 0.1429 0.2500  plane waves:    3338
 k-point 56 :  -0.1000 0.1429 0.2500  plane waves:    3345
 k-point 57 :   0.0000 0.2857 0.2500  plane waves:    3344
 k-point 58 :   0.1000 0.2857 0.2500  plane waves:    3345
 k-point 59 :   0.2000 0.2857 0.2500  plane waves:    3337
 k-point 60 :   0.3000 0.2857 0.2500  plane waves:    3324
 k-point 61 :   0.4000 0.2857 0.2500  plane waves:    3320
 k-point 62 :   0.5000 0.2857 0.2500  plane waves:    3322
 k-point 63 :  -0.4000 0.2857 0.2500  plane waves:    3320
 k-point 64 :  -0.3000 0.2857 0.2500  plane waves:    3324
 k-point 65 :  -0.2000 0.2857 0.2500  plane waves:    3337
 k-point 66 :  -0.1000 0.2857 0.2500  plane waves:    3345
 k-point 67 :   0.0000 0.4286 0.2500  plane waves:    3344
 k-point 68 :   0.1000 0.4286 0.2500  plane waves:    3331
 k-point 69 :   0.2000 0.4286 0.2500  plane waves:    3335
 k-point 70 :   0.3000 0.4286 0.2500  plane waves:    3323
 k-point 71 :   0.4000 0.4286 0.2500  plane waves:    3320
 k-point 72 :   0.5000 0.4286 0.2500  plane waves:    3316
 k-point 73 :  -0.4000 0.4286 0.2500  plane waves:    3320
 k-point 74 :  -0.3000 0.4286 0.2500  plane waves:    3323
 k-point 75 :  -0.2000 0.4286 0.2500  plane waves:    3335
 k-point 76 :  -0.1000 0.4286 0.2500  plane waves:    3331
 k-point 77 :  -0.0000-0.4286 0.2500  plane waves:    3344
 k-point 78 :   0.1000-0.4286 0.2500  plane waves:    3331
 k-point 79 :   0.2000-0.4286 0.2500  plane waves:    3335
 k-point 80 :   0.3000-0.4286 0.2500  plane waves:    3323
 k-point 81 :   0.4000-0.4286 0.2500  plane waves:    3320
 k-point 82 :   0.5000-0.4286 0.2500  plane waves:    3316
 k-point 83 :  -0.4000-0.4286 0.2500  plane waves:    3320
 k-point 84 :  -0.3000-0.4286 0.2500  plane waves:    3323
 k-point 85 :  -0.2000-0.4286 0.2500  plane waves:    3335
 k-point 86 :  -0.1000-0.4286 0.2500  plane waves:    3331
 k-point 87 :  -0.0000-0.2857 0.2500  plane waves:    3344
 k-point 88 :   0.1000-0.2857 0.2500  plane waves:    3345
 k-point 89 :   0.2000-0.2857 0.2500  plane waves:    3337
 k-point 90 :   0.3000-0.2857 0.2500  plane waves:    3324
 k-point 91 :   0.4000-0.2857 0.2500  plane waves:    3320
 k-point 92 :   0.5000-0.2857 0.2500  plane waves:    3322
 k-point 93 :  -0.4000-0.2857 0.2500  plane waves:    3320
 k-point 94 :  -0.3000-0.2857 0.2500  plane waves:    3324
 k-point 95 :  -0.2000-0.2857 0.2500  plane waves:    3337
 k-point 96 :  -0.1000-0.2857 0.2500  plane waves:    3345
 k-point 97 :  -0.0000-0.1429 0.2500  plane waves:    3343
 k-point 98 :   0.1000-0.1429 0.2500  plane waves:    3345
 k-point 99 :   0.2000-0.1429 0.2500  plane waves:    3338
 k-point ** :   0.3000-0.1429 0.2500  plane waves:    3332
 k-point ** :   0.4000-0.1429 0.2500  plane waves:    3329
 k-point ** :   0.5000-0.1429 0.2500  plane waves:    3330
 k-point ** :  -0.4000-0.1429 0.2500  plane waves:    3329
 k-point ** :  -0.3000-0.1429 0.2500  plane waves:    3332
 k-point ** :  -0.2000-0.1429 0.2500  plane waves:    3338
 k-point ** :  -0.1000-0.1429 0.2500  plane waves:    3345
 k-point ** :  -0.0000 0.0000 0.5000  plane waves:    3346
 k-point ** :   0.1000 0.0000 0.5000  plane waves:    3330
 k-point ** :   0.2000-0.0000 0.5000  plane waves:    3342
 k-point ** :   0.3000 0.0000 0.5000  plane waves:    3330
 k-point ** :   0.4000 0.0000 0.5000  plane waves:    3336
 k-point ** :   0.5000 0.0000 0.5000  plane waves:    3340
 k-point ** :   0.0000 0.1429 0.5000  plane waves:    3346
 k-point ** :   0.1000 0.1429 0.5000  plane waves:    3350
 k-point ** :   0.2000 0.1429 0.5000  plane waves:    3338
 k-point ** :   0.3000 0.1429 0.5000  plane waves:    3326
 k-point ** :   0.4000 0.1429 0.5000  plane waves:    3332
 k-point ** :   0.5000 0.1429 0.5000  plane waves:    3324
 k-point ** :  -0.4000 0.1429 0.5000  plane waves:    3332
 k-point ** :  -0.3000 0.1429 0.5000  plane waves:    3326
 k-point ** :  -0.2000 0.1429 0.5000  plane waves:    3338
 k-point ** :  -0.1000 0.1429 0.5000  plane waves:    3350
 k-point ** :   0.0000 0.2857 0.5000  plane waves:    3354
 k-point ** :   0.1000 0.2857 0.5000  plane waves:    3344
 k-point ** :   0.2000 0.2857 0.5000  plane waves:    3342
 k-point ** :   0.3000 0.2857 0.5000  plane waves:    3322
 k-point ** :   0.4000 0.2857 0.5000  plane waves:    3324
 k-point ** :   0.5000 0.2857 0.5000  plane waves:    3328
 k-point ** :  -0.4000 0.2857 0.5000  plane waves:    3324
 k-point ** :  -0.3000 0.2857 0.5000  plane waves:    3322
 k-point ** :  -0.2000 0.2857 0.5000  plane waves:    3342
 k-point ** :  -0.1000 0.2857 0.5000  plane waves:    3344
 k-point ** :   0.0000 0.4286 0.5000  plane waves:    3320
 k-point ** :   0.1000 0.4286 0.5000  plane waves:    3338
 k-point ** :   0.2000 0.4286 0.5000  plane waves:    3342
 k-point ** :   0.3000 0.4286 0.5000  plane waves:    3328
 k-point ** :   0.4000 0.4286 0.5000  plane waves:    3310
 k-point ** :   0.5000 0.4286 0.5000  plane waves:    3304
 k-point ** :  -0.4000 0.4286 0.5000  plane waves:    3310
 k-point ** :  -0.3000 0.4286 0.5000  plane waves:    3328
 k-point ** :  -0.2000 0.4286 0.5000  plane waves:    3342
 k-point ** :  -0.1000 0.4286 0.5000  plane waves:    3338

 maximum and minimum number of plane-waves per node :       860      803

 maximum number of plane-waves:      3371
 maximum index in each direction: 
   IXMAX=    5   IYMAX=    8   IZMAX=   17
   IXMIN=   -5   IYMIN=   -8   IZMIN=  -17


 parallel 3D FFT for wavefunctions:
    minimum data exchange during FFTs selected (reduces bandwidth)
 parallel 3D FFT for charge:
    minimum data exchange during FFTs selected (reduces bandwidth)


 total amount of memory used by VASP MPI-rank0   129471. kBytes
=======================================================================

   base      :      30000. kBytes
   nonl-proj :      34513. kBytes
   fftplans  :       1491. kBytes
   grid      :       3666. kBytes
   one-center:         93. kBytes
   wavefun   :      59708. kBytes
 
     INWAV:  cpu time    3.0376: real time    4.5193
 Broyden mixing: mesh for mixing (old mesh)
   NGX = 11   NGY = 17   NGZ = 35
  (NGX  = 48   NGY  = 72   NGZ  =140)
  gives a total of   6545 points

 charge density for first step will be calculated from the start-wavefunctions


--------------------------------------------------------------------------------------------------------


 Maximum index for augmentation-charges          923 (set IRDMAX)


--------------------------------------------------------------------------------------------------------


 initial charge from wavefunction
 First call to EWALD:  gamma=   0.356
 Maximum number of real-space cells 4x 3x 2
 Maximum number of reciprocal cells 2x 3x 5

    FEWALD:  cpu time    0.0024: real time    0.0024


--------------------------------------- Iteration      1(   1)  ---------------------------------------


    POTLOK:  cpu time    0.0296: real time    0.0654
    SETDIJ:  cpu time    0.4547: real time    0.4770
     EDDAV:  cpu time   18.1520: real time   22.9865
       DOS:  cpu time    0.0048: real time    0.0047
    CHARGE:  cpu time    1.0786: real time    1.2104
    MIXING:  cpu time    0.0016: real time    0.0016
    --------------------------------------------
      LOOP:  cpu time   19.7212: real time   24.7456

 eigenvalue-minimisations  : 38888
 total energy-change (2. order) :-0.9560892E+02  (-0.2465204E-03)
 number of electron     100.0000063 magnetization       0.0000000
 augmentation part       33.7189988 magnetization       0.0000014

 Broyden mixing:
  rms(total) = 0.17442E-02    rms(broyden)= 0.17413E-02
  rms(prec ) = 0.23675E-02
  weight for this iteration     100.00

 Free energy of the ion-electron system (eV)
  ---------------------------------------------------
  alpha Z        PSCENC =       449.39211877
  Ewald energy   TEWEN  =     -7467.59889310
  -Hartree energ DENC   =     -3618.85538891
  -exchange      EXHF   =         0.00000000
  -V(xc)+E(xc)   XCENC  =       498.98082997
  PAW double counting   =     12019.12756643   -12258.12094511
  entropy T*S    EENTRO =        -0.00000000
  eigenvalues    EBANDS =     -1278.44058947
  atomic energy  EATOM  =     11559.90638050
  Solvation  Ediel_sol  =         0.00000000
  ---------------------------------------------------
  free energy    TOTEN  =       -95.60892091 eV

  energy without entropy =      -95.60892091  energy(sigma->0) =      -95.60892091


--------------------------------------------------------------------------------------------------------




--------------------------------------- Iteration      1(   2)  ---------------------------------------


    POTLOK:  cpu time    0.0527: real time    0.0533
    SETDIJ:  cpu time    0.4236: real time    0.7121
    EDDIAG:  cpu time    3.8952: real time    5.1229
  RMM-DIIS:  cpu time    8.7602: real time   11.1625
    ORTHCH:  cpu time    0.3976: real time    0.7670
       DOS:  cpu time    0.0021: real time    0.0042
    CHARGE:  cpu time    0.8081: real time    1.0177
    MIXING:  cpu time    0.0017: real time    0.0017
    --------------------------------------------
      LOOP:  cpu time   14.3412: real time   18.8415

 eigenvalue-minimisations  : 40271
 total energy-change (2. order) :-0.4117010E-05  (-0.7138666E-05)
 number of electron     100.0000063 magnetization       0.0000000
 augmentation part       33.7177286 magnetization       0.0000055

 Broyden mixing:
  rms(total) = 0.30178E-02    rms(broyden)= 0.30175E-02
  rms(prec ) = 0.36844E-02
  weight for this iteration     100.00

 eigenvalues of (default mixing * dielectric matrix)
  average eigenvalue GAMMA=   0.3072
  0.3072

 Free energy of the ion-electron system (eV)
  ---------------------------------------------------
  alpha Z        PSCENC =       449.39211877
  Ewald energy   TEWEN  =     -7467.59889310
  -Hartree energ DENC   =     -3618.89195625
  -exchange      EXHF   =         0.00000000
  -V(xc)+E(xc)   XCENC  =       498.98151578
  PAW double counting   =     12019.27922372   -12258.27566330
  entropy T*S    EENTRO =        -0.00000000
  eigenvalues    EBANDS =     -1278.40165115
  atomic energy  EATOM  =     11559.90638050
  Solvation  Ediel_sol  =         0.00000000
  ---------------------------------------------------
  free energy    TOTEN  =       -95.60892503 eV

  energy without entropy =      -95.60892503  energy(sigma->0) =      -95.60892503


--------------------------------------------------------------------------------------------------------




--------------------------------------- Iteration      1(   3)  ---------------------------------------


    POTLOK:  cpu time    0.0520: real time    0.0527
    SETDIJ:  cpu time    0.5546: real time    0.6375
    EDDIAG:  cpu time    3.2296: real time    3.3992
  RMM-DIIS:  cpu time    8.7506: real time    9.7369
    ORTHCH:  cpu time    0.6828: real time    0.8244
       DOS:  cpu time    0.0021: real time    0.0041
    CHARGE:  cpu time    0.7064: real time    0.9369
    MIXING:  cpu time    0.0014: real time    0.0014
    --------------------------------------------
      LOOP:  cpu time   13.9794: real time   15.5931

 eigenvalue-minimisations  : 36291
 total energy-change (2. order) : 0.7048990E-05  (-0.1184563E-05)
 number of electron     100.0000063 magnetization       0.0000000
 augmentation part       33.7183653 magnetization       0.0000032

 Broyden mixing:
  rms(total) = 0.36380E-03    rms(broyden)= 0.36332E-03
  rms(prec ) = 0.47736E-03
  weight for this iteration     100.00

 eigenvalues of (default mixing * dielectric matrix)
  average eigenvalue GAMMA=   0.4793
  0.4793  0.4793

 Free energy of the ion-electron system (eV)
  ---------------------------------------------------
  alpha Z        PSCENC =       449.39211877
  Ewald energy   TEWEN  =     -7467.59889310
  -Hartree energ DENC   =     -3618.87223143
  -exchange      EXHF   =         0.00000000
  -V(xc)+E(xc)   XCENC  =       498.98125235
  PAW double counting   =     12019.25496591   -12258.24984232
  entropy T*S    EENTRO =        -0.00000000
  eigenvalues    EBANDS =     -1278.42266865
  atomic energy  EATOM  =     11559.90638050
  Solvation  Ediel_sol  =         0.00000000
  ---------------------------------------------------
  free energy    TOTEN  =       -95.60891798 eV

  energy without entropy =      -95.60891798  energy(sigma->0) =      -95.60891798


--------------------------------------------------------------------------------------------------------




--------------------------------------- Iteration      1(   4)  ---------------------------------------


    POTLOK:  cpu time    0.0533: real time    0.0536
    SETDIJ:  cpu time    0.3676: real time    0.4351
    EDDIAG:  cpu time    3.0327: real time    3.9942
  RMM-DIIS:  cpu time    4.3542: real time    4.3669
    ORTHCH:  cpu time    0.8833: real time    0.8850
       DOS:  cpu time    0.0026: real time    0.0027
    --------------------------------------------
      LOOP:  cpu time    8.6936: real time    9.7374

 eigenvalue-minimisations  : 21328
 total energy-change (2. order) : 0.2454963E-06  (-0.1398494E-06)
 number of electron     100.0000063 magnetization       0.0000000
 augmentation part       33.7183653 magnetization       0.0000032

 Free energy of the ion-electron system (eV)
  ---------------------------------------------------
  alpha Z        PSCENC =       449.39211877
  Ewald energy   TEWEN  =     -7467.59889310
  -Hartree energ DENC   =     -3618.86836666
  -exchange      EXHF   =         0.00000000
  -V(xc)+E(xc)   XCENC  =       498.98121026
  PAW double counting   =     12019.28694979   -12258.28175966
  entropy T*S    EENTRO =        -0.00000000
  eigenvalues    EBANDS =     -1278.42655763
  atomic energy  EATOM  =     11559.90638050
  Solvation  Ediel_sol  =         0.00000000
  ---------------------------------------------------
  free energy    TOTEN  =       -95.60891773 eV

  energy without entropy =      -95.60891773  energy(sigma->0) =      -95.60891773


--------------------------------------------------------------------------------------------------------




 average (electrostatic) potential at core
  the test charge radii are     0.9577  0.7215
  (the norm of the test charge is              1.0000)
       1 -71.8582       2 -71.8583       3 -71.8583       4 -71.8583       5 -71.3693
       6 -71.3693       7 -71.3693       8 -71.3693       9 -71.1060      10 -71.1058
      11 -71.1052      12 -71.1051
 
 
 
 E-fermi :   4.0160     XC(G=0): -11.2319     alpha+bet :-11.4974


 spin component 1

 k-point     1 :       0.0000    0.0000    0.0000
  band No.  band energies     occupation 
      1     -46.5101      1.00000
      2     -46.5069      1.00000
      3     -46.4764      1.00000
      4     -46.4669      1.00000
      5     -46.4295      1.00000
      6     -46.4182      1.00000
      7     -43.5515      1.00000
      8     -43.5475      1.00000
      9     -43.5101      1.00000
     10     -43.4976      1.00000
     11     -43.3894      1.00000
     12     -43.3744      1.00000
     13     -15.5988      1.00000
     14     -15.0412      1.00000
     15     -14.6623      1.00000
     16     -13.9314      1.00000
     17     -13.6662      1.00000
     18     -13.5997      1.00000
     19     -13.5140      1.00000
     20     -13.4266      1.00000
     21      -3.0710      1.00000
     22      -2.4731      1.00000
     23      -2.3202      1.00000
     24      -1.7469      1.00000
     25      -1.6329      1.00000
     26      -1.4688      1.00000
     27      -1.4350      1.00000
     28      -1.3361      1.00000
     29      -0.8850      1.00000
     30      -0.8464      1.00000
     31      -0.6936      1.00000
     32      -0.2410      1.00000
     33      -0.1193      1.00000
     34       0.4713      1.00000
     35       0.6264      1.00000
     36       0.8788      1.00000
     37       0.8893      1.00000
     38       1.1532      1.00000
     39       1.3672      1.00000
     40       1.8545      1.00000
     41       2.0828      1.00000
     42       2.2834      1.00000
     43       2.3439      1.00000
     44       2.4892      1.00000
     45       2.6574      1.00000
     46       2.6665      1.00000
     47       2.6692      1.00000
     48       3.0122      1.00000
     49       3.2445      1.00000
     50       3.8377      1.00000
     51       4.8192      0.00000
     52       5.0119      0.00000
     53       5.1170      0.00000
     54       5.1389      0.00000
     55       5.2271      0.00000
     56       5.3877      0.00000
     57       6.4866      0.00000
     58       6.5822      0.00000
     59       6.6407      0.00000
     60       6.7789      0.00000

 k-point     2 :       0.1000    0.0000   -0.0000
  band No.  band energies     occupation 
      1     -46.5200      1.00000
      2     -46.5169      1.00000
      3     -46.4749      1.00000
      4     -46.4657      1.00000
      5     -46.4283      1.00000
      6     -46.4174      1.00000
      7     -43.5632      1.00000
      8     -43.5593      1.00000
      9     -43.5083      1.00000
     10     -43.4963      1.00000
     11     -43.3878      1.00000
     12     -43.3735      1.00000
     13     -15.5061      1.00000
     14     -14.9712      1.00000
     15     -14.5926      1.00000
     16     -13.9025      1.00000
     17     -13.6743      1.00000
     18     -13.6110      1.00000
     19     -13.5369      1.00000
     20     -13.4381      1.00000
     21      -2.9399      1.00000
     22      -2.3742      1.00000
     23      -2.2233      1.00000
     24      -1.6882      1.00000
     25      -1.6052      1.00000
     26      -1.5768      1.00000
     27      -1.5051      1.00000
     28      -1.3424      1.00000
     29      -0.9943      1.00000
     30      -0.7748      1.00000
     31      -0.5762      1.00000
     32      -0.2325      1.00000
     33      -0.0043      1.00000
     34       0.3790      1.00000
     35       0.5014      1.00000
     36       0.6305      1.00000
     37       0.6488      1.00000
     38       1.0860      1.00000
     39       1.4697      1.00000
     40       1.6314      1.00000
     41       1.8988      1.00000
     42       1.9751      1.00000
     43       2.2721      1.00000
     44       2.5604      1.00000
     45       2.5856      1.00000
     46       2.7181      1.00000
     47       2.8950      1.00000
     48       2.9876      1.00000
     49       3.3102      1.00000
     50       3.8211      1.00000
     51       4.8772      0.00000
     52       5.0343      0.00000
     53       5.2329      0.00000
     54       5.2861      0.00000
     55       5.2914      0.00000
     56       5.4356      0.00000
     57       6.3908      0.00000
     58       6.4000      0.00000
     59       6.4712      0.00000
     60       6.6741      0.00000

 k-point     3 :       0.2000    0.0000   -0.0000
  band No.  band energies     occupation 
      1     -46.5457      1.00000
      2     -46.5431      1.00000
      3     -46.4708      1.00000
      4     -46.4629      1.00000
      5     -46.4248      1.00000
      6     -46.4155      1.00000
      7     -43.5935      1.00000
      8     -43.5902      1.00000
      9     -43.5033      1.00000
     10     -43.4930      1.00000
     11     -43.3834      1.00000
     12     -43.3712      1.00000
     13     -15.2459      1.00000
     14     -14.7798      1.00000
     15     -14.4033      1.00000
     16     -13.8411      1.00000
     17     -13.6974      1.00000
     18     -13.6441      1.00000
     19     -13.5986      1.00000
     20     -13.4638      1.00000
     21      -2.5807      1.00000
     22      -2.1325      1.00000
     23      -1.9904      1.00000
     24      -1.8023      1.00000
     25      -1.6098      1.00000
     26      -1.6047      1.00000
     27      -1.3832      1.00000
     28      -1.3593      1.00000
     29      -1.0955      1.00000
     30      -0.7072      1.00000
     31      -0.5186      1.00000
     32      -0.4791      1.00000
     33      -0.1983      1.00000
     34      -0.0784      1.00000
     35       0.3463      1.00000
     36       0.5029      1.00000
     37       0.9252      1.00000
     38       0.9472      1.00000
     39       0.9766      1.00000
     40       1.3303      1.00000
     41       1.5692      1.00000
     42       1.6475      1.00000
     43       2.2343      1.00000
     44       2.5227      1.00000
     45       2.6262      1.00000
     46       2.7121      1.00000
     47       2.8564      1.00000
     48       3.0108      1.00000
     49       3.3821      1.00000
     50       3.7871      1.00000
     51       5.0428      0.00000
     52       5.1282      0.00000
     53       5.1974      0.00000
     54       5.3799      0.00000
     55       5.4540      0.00000
     56       5.6414      0.00000
     57       5.9841      0.00000
     58       6.1106      0.00000
     59       6.3530      0.00000
     60       6.7411      0.00000

 k-point     4 :       0.3000    0.0000   -0.0000
  band No.  band energies     occupation 
      1     -46.5773      1.00000
      2     -46.5754      1.00000
      3     -46.4656      1.00000
      4     -46.4597      1.00000
      5     -46.4203      1.00000
      6     -46.4134      1.00000
      7     -43.6306      1.00000
      8     -43.6283      1.00000
      9     -43.4969      1.00000
     10     -43.4894      1.00000
     11     -43.3776      1.00000
     12     -43.3686      1.00000
     13     -14.8706      1.00000
     14     -14.5197      1.00000
     15     -14.1540      1.00000
     16     -13.8147      1.00000
     17     -13.7526      1.00000
     18     -13.6940      1.00000
     19     -13.6600      1.00000
     20     -13.4893      1.00000
     21      -2.1287      1.00000
     22      -2.1201      1.00000
     23      -1.7865      1.00000
     24      -1.7706      1.00000
     25      -1.7430      1.00000
     26      -1.6721      1.00000
     27      -1.4319      1.00000
     28      -1.3509      1.00000
     29      -0.9589      1.00000
     30      -0.9395      1.00000
     31      -0.7795      1.00000
     32      -0.4753      1.00000
     33      -0.1873      1.00000
     34      -0.1164      1.00000
     35       0.1935      1.00000
     36       0.5484      1.00000
     37       0.5906      1.00000
     38       0.7521      1.00000
     39       1.0744      1.00000
     40       1.1370      1.00000
     41       1.2998      1.00000
     42       1.6619      1.00000
     43       1.8389      1.00000
     44       2.3355      1.00000
     45       2.4449      1.00000
     46       2.6145      1.00000
     47       2.8110      1.00000
     48       2.8267      1.00000
     49       3.4698      1.00000
     50       3.7674      1.00000
     51       4.8198      0.00000
     52       5.0628      0.00000
     53       5.4013      0.00000
     54       5.4116      0.00000
     55       5.4708      0.00000
     56       5.5477      0.00000
     57       5.9812      0.00000
     58       6.0547      0.00000
     59       6.3338      0.00000
     60       6.6540      0.00000

 k-point     5 :       0.4000    0.0000   -0.0000
  band No.  band energies     occupation 
      1     -46.6025      1.00000
      2     -46.6015      1.00000
      3     -46.4610      1.00000
      4     -46.4578      1.00000
      5     -46.4159      1.00000
      6     -46.4122      1.00000
      7     -43.6603      1.00000
      8     -43.6591      1.00000
      9     -43.4911      1.00000
     10     -43.4871      1.00000
     11     -43.3721      1.00000
     12     -43.3673      1.00000
     13     -14.4626      1.00000
     14     -14.2582      1.00000
     15     -13.9376      1.00000
     16     -13.8973      1.00000
     17     -13.8658      1.00000
     18     -13.7420      1.00000
     19     -13.6569      1.00000
     20     -13.5251      1.00000
     21      -2.4603      1.00000
     22      -2.2969      1.00000
     23      -1.8531      1.00000
     24      -1.7095      1.00000
     25      -1.6657      1.00000
     26      -1.6415      1.00000
     27      -1.2575      1.00000
     28      -1.1602      1.00000
     29      -1.0645      1.00000
     30      -0.8683      1.00000
     31      -0.6886      1.00000
     32      -0.4053      1.00000
     33      -0.2190      1.00000
     34       0.0813      1.00000
     35       0.1288      1.00000
     36       0.4433      1.00000
     37       0.7296      1.00000
     38       0.7535      1.00000
     39       0.9161      1.00000
     40       1.1896      1.00000
     41       1.3251      1.00000
     42       1.3527      1.00000
     43       1.5945      1.00000
     44       2.0556      1.00000
     45       2.2978      1.00000
     46       2.3415      1.00000
     47       2.5013      1.00000
     48       2.5574      1.00000
     49       3.6294      1.00000
     50       3.7658      1.00000
     51       4.6360      0.00000
     52       4.8380      0.00000
     53       5.3447      0.00000
     54       5.4647      0.00000
     55       5.5230      0.00000
     56       5.5267      0.00000
     57       6.0153      0.00000
     58       6.0254      0.00000
     59       6.4977      0.00000
     60       6.6301      0.00000

 k-point     6 :       0.5000    0.0000   -0.0000
  band No.  band energies     occupation 
      1     -46.6119      1.00000
      2     -46.6118      1.00000
      3     -46.4582      1.00000
      4     -46.4581      1.00000
      5     -46.4130      1.00000
      6     -46.4130      1.00000
      7     -43.6713      1.00000
      8     -43.6712      1.00000
      9     -43.4876      1.00000
     10     -43.4876      1.00000
     11     -43.3684      1.00000
     12     -43.3684      1.00000
     13     -14.1173      1.00000
     14     -14.1170      1.00000
     15     -14.0414      1.00000
     16     -14.0413      1.00000
     17     -13.8023      1.00000
     18     -13.8015      1.00000
     19     -13.5930      1.00000
     20     -13.5921      1.00000
     21      -2.5717      1.00000
     22      -2.5715      1.00000
     23      -1.8133      1.00000
     24      -1.8132      1.00000
     25      -1.5637      1.00000
     26      -1.5636      1.00000
     27      -1.1325      1.00000
     28      -1.1324      1.00000
     29      -0.8966      1.00000
     30      -0.8962      1.00000
     31      -0.6334      1.00000
     32      -0.6333      1.00000
     33       0.0406      1.00000
     34       0.0408      1.00000
     35       0.4035      1.00000
     36       0.4039      1.00000
     37       0.6318      1.00000
     38       0.6327      1.00000
     39       1.0564      1.00000
     40       1.0568      1.00000
     41       1.3817      1.00000
     42       1.3817      1.00000
     43       1.7332      1.00000
     44       1.7342      1.00000
     45       2.1096      1.00000
     46       2.1097      1.00000
     47       2.4101      1.00000
     48       2.4103      1.00000
     49       3.7367      1.00000
     50       3.7367      1.00000
     51       4.6660      0.00000
     52       4.6663      0.00000
     53       5.3696      0.00000
     54       5.3698      0.00000
     55       5.5221      0.00000
     56       5.5224      0.00000
     57       6.0284      0.00000
     58       6.0285      0.00000
     59       6.6136      0.00000
     60       6.6138      0.00000

 k-point     7 :       0.0000    0.1429   -0.0000
  band No.  band energies     occupation 
      1     -46.5100      1.00000
      2     -46.5071      1.00000
      3     -46.4760      1.00000
      4     -46.4675      1.00000
      5     -46.4288      1.00000
      6     -46.4186      1.00000
      7     -43.5513      1.00000
      8     -43.5477      1.00000
      9     -43.5096      1.00000
     10     -43.4984      1.00000
     11     -43.3886      1.00000
     12     -43.3751      1.00000
     13     -15.5561      1.00000
     14     -15.0444      1.00000
     15     -14.6250      1.00000
     16     -13.9606      1.00000
     17     -13.6684      1.00000
     18     -13.6225      1.00000
     19     -13.5336      1.00000
     20     -13.4579      1.00000
     21      -3.0478      1.00000
     22      -2.5024      1.00000
     23      -2.2121      1.00000
     24      -1.7995      1.00000
     25      -1.6963      1.00000
     26      -1.4679      1.00000
     27      -1.4399      1.00000
     28      -1.3155      1.00000
     29      -0.8415      1.00000
     30      -0.7590      1.00000
     31      -0.7089      1.00000
     32      -0.2631      1.00000
     33      -0.0916      1.00000
     34       0.5947      1.00000
     35       0.6328      1.00000
     36       0.8161      1.00000
     37       0.9186      1.00000
[...]
     56       5.5691      0.00000
     57       5.9396      0.00000
     58       6.0190      0.00000
     59       6.3286      0.00000
     60       6.4955      0.00000

 k-point   141 :      -0.2000    0.4286    0.5000
  band No.  band energies     occupation 
      1     -46.5446      1.00000
      2     -46.5440      1.00000
      3     -46.4682      1.00000
      4     -46.4665      1.00000
      5     -46.4207      1.00000
      6     -46.4187      1.00000
      7     -43.5922      1.00000
      8     -43.5915      1.00000
      9     -43.4997      1.00000
     10     -43.4975      1.00000
     11     -43.3785      1.00000
     12     -43.3758      1.00000
     13     -14.9300      1.00000
     14     -14.9078      1.00000
     15     -14.0939      1.00000
     16     -14.0848      1.00000
     17     -13.7533      1.00000
     18     -13.7507      1.00000
     19     -13.6326      1.00000
     20     -13.6031      1.00000
     21      -2.4208      1.00000
     22      -2.3908      1.00000
     23      -1.9207      1.00000
     24      -1.9029      1.00000
     25      -1.8183      1.00000
     26      -1.7370      1.00000
     27      -1.5818      1.00000
     28      -1.5566      1.00000
     29      -0.5724      1.00000
     30      -0.5127      1.00000
     31      -0.2629      1.00000
     32      -0.2604      1.00000
     33       0.1116      1.00000
     34       0.3367      1.00000
     35       0.3806      1.00000
     36       0.4426      1.00000
     37       0.6723      1.00000
     38       0.8653      1.00000
     39       1.1382      1.00000
     40       1.1756      1.00000
     41       1.6210      1.00000
     42       1.8532      1.00000
     43       2.0717      1.00000
     44       2.1102      1.00000
     45       2.4546      1.00000
     46       2.4774      1.00000
     47       3.0100      1.00000
     48       3.0594      1.00000
     49       3.3423      1.00000
     50       3.5080      1.00000
     51       5.0714      0.00000
     52       5.0733      0.00000
     53       5.3874      0.00000
     54       5.4129      0.00000
     55       5.6044      0.00000
     56       5.7913      0.00000
     57       5.9357      0.00000
     58       6.0167      0.00000
     59       6.2979      0.00000
     60       6.4718      0.00000

 k-point   142 :      -0.1000    0.4286    0.5000
  band No.  band energies     occupation 
      1     -46.5187      1.00000
      2     -46.5180      1.00000
      3     -46.4719      1.00000
      4     -46.4699      1.00000
      5     -46.4234      1.00000
      6     -46.4210      1.00000
      7     -43.5617      1.00000
      8     -43.5608      1.00000
      9     -43.5041      1.00000
     10     -43.5015      1.00000
     11     -43.3820      1.00000
     12     -43.3788      1.00000
     13     -15.1531      1.00000
     14     -15.1293      1.00000
     15     -14.2277      1.00000
     16     -14.2252      1.00000
     17     -13.7182      1.00000
     18     -13.7126      1.00000
     19     -13.6058      1.00000
     20     -13.5839      1.00000
     21      -2.7114      1.00000
     22      -2.6657      1.00000
     23      -2.0368      1.00000
     24      -1.9919      1.00000
     25      -1.6297      1.00000
     26      -1.6012      1.00000
     27      -1.3667      1.00000
     28      -1.3017      1.00000
     29      -0.7655      1.00000
     30      -0.7379      1.00000
     31      -0.0841      1.00000
     32       0.1651      1.00000
     33       0.2995      1.00000
     34       0.3241      1.00000
     35       0.4596      1.00000
     36       0.5642      1.00000
     37       0.8095      1.00000
     38       1.0039      1.00000
     39       1.3127      1.00000
     40       1.3487      1.00000
     41       1.7806      1.00000
     42       1.7989      1.00000
     43       2.2408      1.00000
     44       2.3128      1.00000
     45       2.4123      1.00000
     46       2.5094      1.00000
     47       2.8701      1.00000
     48       2.8846      1.00000
     49       3.3947      1.00000
     50       3.5816      1.00000
     51       4.9420      0.00000
     52       4.9848      0.00000
     53       5.1895      0.00000
     54       5.2311      0.00000
     55       5.5678      0.00000
     56       5.8598      0.00000
     57       6.1154      0.00000
     58       6.2872      0.00000
     59       6.4867      0.00000
     60       6.5426      0.00000


--------------------------------------------------------------------------------------------------------


 soft charge-density along one line, spin component           1
         0         1         2         3         4         5         6         7         8         9
 total charge-density along one line
 
 soft charge-density along one line, spin component           2
         0         1         2         3         4         5         6         7         8         9
 total charge-density along one line
 
 pseudopotential strength for first ion, spin component:           1
-43.725  -0.019   0.000   8.520   0.008  -0.000  -0.000  -0.016
 -0.019 -43.783   0.000   0.008   8.545  -0.000   0.000  -0.001
  0.000   0.000 -43.855  -0.000  -0.000   8.575  -0.002   0.000
  8.520   0.008  -0.000   4.975  -0.002   0.000   0.000   0.006
  0.008   8.545  -0.000  -0.002   4.967   0.000  -0.000   0.001
 -0.000  -0.000   8.575   0.000   0.000   4.956   0.001  -0.000
 -0.000   0.000  -0.002   0.000  -0.000   0.001  -4.166   0.000
 -0.016  -0.001   0.000   0.006   0.001  -0.000   0.000  -4.197
 -0.002  -0.007   0.000   0.001  -0.003  -0.000  -0.000   0.196
  0.000  -0.000  -0.006  -0.000   0.000  -0.001  -0.312   0.000
 -0.004   0.005  -0.000   0.002  -0.004   0.000  -0.000  -0.178
 -0.000   0.000  -0.002   0.000  -0.000   0.001  -4.632   0.000
 -0.015  -0.001   0.000   0.006   0.002  -0.000   0.000  -4.663
 -0.002  -0.007   0.000   0.001  -0.003  -0.000  -0.000   0.193
  0.000  -0.000  -0.006  -0.000   0.000  -0.001  -0.308   0.000
 -0.004   0.004  -0.000   0.002  -0.004   0.000  -0.000  -0.175
  0.000   0.003   0.000   0.000  -0.001  -0.000  -0.000   0.005
  0.000   0.006   0.000   0.001  -0.001  -0.000  -0.000   0.009
 pseudopotential strength for first ion, spin component:           2
-45.782  -0.007   0.000   9.472   0.001  -0.000  -0.000  -0.007
 -0.007 -45.800   0.000   0.001   9.480  -0.000  -0.000   0.005
  0.000   0.000 -45.856  -0.000  -0.000   9.504   0.001  -0.000
  9.472   0.001  -0.000   4.669  -0.000   0.000   0.000   0.003
  0.001   9.480  -0.000  -0.000   4.666   0.000   0.000  -0.002
 -0.000  -0.000   9.504   0.000   0.000   4.660  -0.001   0.000
 -0.000  -0.000   0.001   0.000   0.000  -0.001  -5.831  -0.000
 -0.007   0.005  -0.000   0.003  -0.002   0.000  -0.000  -5.749
  0.001  -0.029   0.000  -0.000   0.011  -0.000  -0.000  -0.151
 -0.000  -0.000  -0.020   0.000   0.000   0.008   0.220  -0.000
 -0.002  -0.006  -0.000   0.000   0.003   0.000   0.000   0.143
 -0.000  -0.000   0.001   0.000   0.000  -0.001  -6.273  -0.000
 -0.007   0.005  -0.000   0.003  -0.002   0.000  -0.000  -6.193
  0.001  -0.028   0.000  -0.000   0.011  -0.000  -0.000  -0.148
 -0.000  -0.000  -0.019   0.000   0.000   0.008   0.216  -0.000
 -0.002  -0.006  -0.000   0.000   0.003   0.000   0.000   0.141
 -0.001   0.009   0.000   0.001  -0.001  -0.000  -0.000   0.000
 -0.002   0.018   0.000   0.001  -0.001  -0.000  -0.000  -0.000
 total augmentation occupancy for first ion, spin component:           1
  1.985  -0.000  -0.000  -0.057  -0.000   0.000  -0.000   0.006   0.000  -0.000   0.004   0.000  -0.005  -0.000   0.000  -0.003
 -0.000   1.985   0.000  -0.000  -0.056   0.000  -0.000  -0.000  -0.016  -0.000  -0.007   0.000  -0.000   0.015   0.000   0.006
 -0.000   0.000   1.985   0.000   0.000  -0.056   0.005  -0.000   0.000  -0.007  -0.000  -0.004   0.000  -0.000   0.007   0.000
 -0.057  -0.000   0.000   0.233  -0.002   0.000  -0.000   0.081   0.018  -0.000   0.056   0.000  -0.082  -0.018   0.000  -0.055
 -0.000  -0.056   0.000  -0.002   0.251   0.000  -0.000  -0.035  -0.179  -0.000  -0.093   0.000   0.024   0.194   0.000   0.096
  0.000   0.000  -0.056   0.000   0.000   0.272   0.107  -0.000   0.000  -0.075  -0.000  -0.101   0.000  -0.000   0.080   0.000
 -0.000  -0.000   0.005  -0.000  -0.000   0.107   5.770   0.000   0.000  -1.326  -0.000  -5.326  -0.000  -0.000  -0.147   0.000
  0.006  -0.000  -0.000   0.081  -0.035  -0.000   0.000   4.976   0.673   0.000  -0.499  -0.000  -4.869   0.272  -0.000  -0.401
  0.000  -0.016   0.000   0.018  -0.179   0.000   0.000   0.673   7.225   0.000   0.223  -0.000   0.288  -5.581  -0.000   0.295
 -0.000  -0.000  -0.007  -0.000  -0.000  -0.075  -1.326   0.000   0.000   6.081  -0.000  -0.160  -0.000  -0.000  -5.370   0.000
  0.004  -0.007  -0.000   0.056  -0.093  -0.000  -0.000  -0.499   0.223  -0.000   6.927   0.000  -0.416   0.294   0.000  -5.330
  0.000   0.000  -0.004   0.000   0.000  -0.101  -5.326  -0.000  -0.000  -0.160   0.000   5.879   0.000   0.000   1.406   0.000
 -0.005  -0.000   0.000  -0.082   0.024   0.000  -0.000  -4.869   0.288  -0.000  -0.416   0.000   5.689  -1.094   0.000   1.181
 -0.000   0.015  -0.000  -0.018   0.194  -0.000  -0.000   0.272  -5.581  -0.000   0.294   0.000  -1.094   5.142  -0.000  -0.720
  0.000   0.000   0.007   0.000   0.000   0.080  -0.147  -0.000  -0.000  -5.370   0.000   1.406   0.000  -0.000   5.714   0.000
 -0.003   0.006   0.000  -0.055   0.096   0.000   0.000  -0.401   0.295   0.000  -5.330   0.000   1.181  -0.720   0.000   4.913
 -0.001  -0.013  -0.000  -0.004   0.034   0.000   0.000   0.215  -0.017  -0.000  -0.607   0.000  -0.211   0.026   0.000   0.592
  0.000   0.007   0.000   0.000  -0.006  -0.000   0.000  -0.035  -0.004   0.000   0.115  -0.000   0.042  -0.001  -0.000  -0.102
 total augmentation occupancy for first ion, spin component:           2
  0.002  -0.000  -0.000   0.007  -0.000  -0.000  -0.000   0.001   0.001  -0.000   0.001   0.000  -0.001  -0.001   0.000  -0.001
 -0.000   0.002  -0.000  -0.000   0.007  -0.000  -0.000   0.003  -0.005  -0.000  -0.002   0.000  -0.003   0.005   0.000   0.002
 -0.000  -0.000   0.002  -0.000  -0.000   0.007   0.000  -0.000  -0.000  -0.004  -0.000  -0.000   0.000  -0.000   0.004   0.000
  0.007  -0.000  -0.000  -0.014   0.000  -0.000  -0.000  -0.023  -0.035   0.000   0.002   0.000   0.015   0.023  -0.000  -0.001
 -0.000   0.007  -0.000   0.000  -0.010  -0.000   0.000   0.004   0.056  -0.000   0.039   0.000  -0.005  -0.028   0.000  -0.022
 -0.000  -0.000   0.007  -0.000  -0.000  -0.020  -0.033   0.000   0.000   0.038  -0.000   0.022  -0.000  -0.000  -0.023   0.000
 -0.000  -0.000   0.000  -0.000   0.000  -0.033  -2.491  -0.000  -0.000   3.299   0.000   1.181   0.000   0.000  -2.203  -0.000
  0.001   0.003  -0.000  -0.023   0.004   0.000  -0.000  -1.412  -2.096  -0.000   1.872   0.000   0.408   1.406   0.000  -1.246
  0.001  -0.005  -0.000  -0.035   0.056   0.000  -0.000  -2.096  -5.270  -0.000  -1.237   0.000   1.392   3.074   0.000   0.891
 -0.000  -0.000  -0.004   0.000  -0.000   0.038   3.299  -0.000  -0.000  -3.040   0.000  -2.195   0.000   0.000   1.558  -0.000
  0.001  -0.002  -0.000   0.002   0.039  -0.000   0.000   1.872  -1.237   0.000  -4.930  -0.000  -1.219   0.886  -0.000   2.768
  0.000   0.000  -0.000   0.000   0.000   0.022   1.181   0.000   0.000  -2.195  -0.000  -0.408  -0.000  -0.000   1.529   0.000
 -0.001  -0.003   0.000   0.015  -0.005  -0.000   0.000   0.408   1.392   0.000  -1.219  -0.000   0.153  -0.982  -0.000   0.854
 -0.001   0.005  -0.000   0.023  -0.028  -0.000   0.000   1.406   3.074   0.000   0.886  -0.000  -0.982  -1.731  -0.000  -0.655
  0.000   0.000   0.004  -0.000   0.000  -0.023  -2.203   0.000   0.000   1.558  -0.000   1.529  -0.000  -0.000  -0.673   0.000
 -0.001   0.002   0.000  -0.001  -0.022   0.000  -0.000  -1.246   0.891  -0.000   2.768   0.000   0.854  -0.655   0.000  -1.475
 -0.000   0.002   0.000  -0.001   0.008   0.000  -0.000  -0.086   0.045  -0.000   0.094   0.000   0.043  -0.031   0.000  -0.033
  0.000  -0.001  -0.000   0.000   0.000  -0.000   0.000   0.003   0.006   0.000  -0.024  -0.000  -0.001  -0.001  -0.000   0.009


------------------------ aborting loop because EDIFF is reached ----------------------------------------


    CHARGE:  cpu time    0.8697: real time    0.8712
    FORLOC:  cpu time    0.0015: real time    0.0015
    FORNL :  cpu time    3.6765: real time    4.5866
    STRESS:  cpu time    3.3995: real time    4.3253
    FORCOR:  cpu time    0.0556: real time    0.0557
    FORHAR:  cpu time    0.0105: real time    0.0105
    MIXING:  cpu time    0.0012: real time    0.0012
    OFIELD:  cpu time    0.0001: real time    0.0001

  FORCE on cell =-STRESS in cart. coord.  units (eV):
  Direction    XX          YY          ZZ          XY          YZ          ZX
  --------------------------------------------------------------------------------------
  Alpha Z   449.39212   449.39212   449.39212
  Ewald   -1182.60153 -4110.79740 -2174.20958    -0.00153     0.00760    -0.00090
  Hartree  2092.13432    82.97510  1443.76633    -0.00145     0.00365    -0.00055
  E(xc)    -548.31243  -549.82684  -548.93660     0.00000     0.00001     0.00000
  Local   -2520.69464  2368.77220  -906.24296     0.00285    -0.01098     0.00130
  n-local  -313.85244  -322.19266  -319.24893     0.00005     0.00002     0.00002
  augment   450.06231   459.51400   455.92158     0.00004    -0.00004     0.00005
  Kinetic  1573.93874  1621.90181  1599.41505     0.00028    -0.00042     0.00025
  Fock        0.00000     0.00000     0.00000     0.00000     0.00000     0.00000
  -------------------------------------------------------------------------------------
  Total       0.06644    -0.26167    -0.14300     0.00024    -0.00016     0.00018
  in kB       0.85991    -3.38664    -1.85073     0.00308    -0.00211     0.00227
  external pressure =       -1.46 kB  Pullay stress =        0.00 kB


 VOLUME and BASIS-vectors are now :
 -----------------------------------------------------------------------------
  energy-cutoff  :      520.00
  volume of cell :      123.79
      direct lattice vectors                 reciprocal lattice vectors
     2.873988171 -0.000003827 -0.000003143     0.347948544  0.000000522  0.000000263
    -0.000006910  4.602672104  0.000017294     0.000000289  0.217265097 -0.000000808
    -0.000007063  0.000034806  9.358283868     0.000000117 -0.000000402  0.106857199

  length of vectors
     2.873988171  4.602672104  9.358283868     0.347948544  0.217265097  0.106857199


 FORCES acting on ions
    electron-ion (+dipol)            ewald-force                    non-local-force                 convergence-correction
 -----------------------------------------------------------------------------------------------
   0.218E-02 -.151E+02 0.139E+03   -.219E-02 0.150E+02 -.140E+03   -.753E-04 0.131E+00 0.952E+00   0.283E-05 0.136E-02 -.681E-03
   0.274E-02 0.152E+02 -.139E+03   -.268E-02 -.151E+02 0.140E+03   -.119E-03 -.131E+00 -.951E+00   -.738E-06 -.150E-02 0.104E-02
   0.352E-02 -.152E+02 -.139E+03   -.351E-02 0.151E+02 0.140E+03   -.162E-03 0.131E+00 -.951E+00   0.579E-06 0.151E-02 0.958E-03
   -.308E-03 0.151E+02 0.139E+03   0.314E-03 -.150E+02 -.140E+03   -.675E-05 -.132E+00 0.952E+00   0.132E-05 -.134E-02 -.755E-03
   -.258E-02 -.362E+03 0.285E+02   0.286E-02 0.387E+03 -.303E+02   -.247E-03 -.248E+02 0.183E+01   0.615E-06 0.209E-03 0.561E-03
   -.161E-02 -.362E+03 -.284E+02   0.177E-02 0.387E+03 0.303E+02   -.115E-03 -.248E+02 -.183E+01   -.324E-06 0.513E-03 0.539E-03
   0.639E-03 0.362E+03 0.285E+02   -.668E-03 -.387E+03 -.303E+02   0.518E-05 0.248E+02 0.183E+01   0.392E-07 -.193E-03 0.667E-03
   0.137E-02 0.362E+03 -.284E+02   -.149E-02 -.387E+03 0.303E+02   0.979E-04 0.248E+02 -.183E+01   0.328E-06 -.505E-03 0.433E-03
   -.303E-02 -.883E+02 -.306E+02   0.334E-02 0.941E+02 0.309E+02   -.229E-03 -.585E+01 -.276E+00   0.931E-07 -.660E-04 -.346E-03
   -.218E-02 0.883E+02 -.306E+02   0.250E-02 -.941E+02 0.309E+02   -.269E-03 0.585E+01 -.277E+00   -.931E-07 0.516E-04 -.345E-03
   -.294E-03 -.883E+02 0.306E+02   0.328E-03 0.941E+02 -.309E+02   -.224E-04 -.584E+01 0.288E+00   -.316E-06 0.101E-02 -.727E-03
   0.519E-03 0.883E+02 0.306E+02   -.589E-03 -.941E+02 -.309E+02   0.153E-03 0.584E+01 0.289E+00   -.354E-06 -.101E-02 -.717E-03
 -----------------------------------------------------------------------------------------------
   0.985E-03 0.839E-03 -.225E-01   -.615E-14 -.995E-13 0.174E-12   -.989E-03 -.872E-03 0.222E-01   0.398E-05 0.371E-04 0.625E-03
 
 
 POSITION                                       TOTAL-FORCE (eV/Angst)
 -----------------------------------------------------------------------------------
      0.71849      0.07632      8.09475        -0.000074      0.006234     -0.000461
      2.15548      4.52662      1.26366        -0.000056     -0.009466     -0.001201
      2.15549      2.37744      5.94277        -0.000149      0.009058     -0.000634
      0.71849      2.22505      3.41560         0.000000     -0.006451      0.000179
      0.71849      3.25157      5.03336         0.000042      0.019987     -0.020382
      2.15548      0.95051      9.00411         0.000039      0.019528      0.020353
      0.71849      3.65245      0.35426        -0.000024     -0.019867     -0.020227
      2.15549      1.35084      4.32498        -0.000015     -0.019264      0.020083
      0.71849      0.90394      2.02918         0.000089     -0.007917      0.012166
      0.71849      1.39745      6.70834         0.000052      0.008001      0.012033
      2.15548      3.20505      2.64983         0.000012     -0.007273     -0.011043
      2.15547      3.69899      7.32895         0.000084      0.007430     -0.010866
 -----------------------------------------------------------------------------------
    total drift:                               -0.000001      0.000004      0.000273


--------------------------------------------------------------------------------------------------------



  FREE ENERGIE OF THE ION-ELECTRON SYSTEM (eV)
  ---------------------------------------------------
  free  energy   TOTEN  =       -95.60891773 eV

  energy  without entropy=      -95.60891773  energy(sigma->0) =      -95.60891773
 


--------------------------------------------------------------------------------------------------------


    POTLOK:  cpu time    0.4784: real time    0.4972


--------------------------------------------------------------------------------------------------------


 stress matrix after NEB project (eV)
      0.06644      0.00024      0.00018
      0.00024     -0.26167     -0.00016
      0.00018     -0.00016     -0.14300
  FORCES: max atom, RMS     0.028547    0.018732
  FORCE total and by dimension    0.064890    0.020382
  Stress total and by dimension    0.305504    0.261668
 writing wavefunctions
     LOOP+:  cpu time   69.4514: real time   85.8295
    4ORBIT:  cpu time    0.0000: real time    0.0000

 total amount of memory used by VASP MPI-rank0   129471. kBytes
=======================================================================

   base      :      30000. kBytes
   nonl-proj :      34513. kBytes
   fftplans  :       1491. kBytes
   grid      :       3666. kBytes
   one-center:         93. kBytes
   wavefun   :      59708. kBytes
 
  
  
 General timing and accounting informations for this job:
 ========================================================
  
                  Total CPU time used (sec):       79.982
                            User time (sec):       73.706
                          System time (sec):        6.276
                         Elapsed time (sec):      100.279
  
                   Maximum memory used (kb):      158440.
                   Average memory used (kb):           0.
  
                          Minor page faults:       258094
                          Major page faults:            3
                 Voluntary context switches:          383
