<?xml version="1.0" encoding="ISO-8859-1"?>
<modeling>
 <generator>
  <i name="program" type="string">vasp </i>
  <i name="version" type="string">5.4.4.18Apr17-6-g9f103f2a35  </i>
  <i name="subversion" type="string">(build Nov 08 2022 17:27:33) complex            parallel </i>
  <i name="platform" type="string">LinuxIFC </i>
  <i name="date" type="string">2022 11 22 </i>
  <i name="time" type="string">19:46:42 </i>
 </generator>
 <incar>
  <i type="string" name="PREC">accurate</i>
  <i type="string" name="ALGO"> Fast</i>
  <i type="int" name="ISPIN">     2</i>
  <i type="int" name="ICHARG">     0</i>
  <i type="int" name="NELM">   100</i>
  <i type="int" name="IBRION">     2</i>
  <i name="EDIFF">      0.00000100</i>
  <i name="EDIFFG">     -0.03000000</i>
  <i type="int" name="NSW">     0</i>
  <i type="int" name="ISIF">     3</i>
  <i type="int" name="ISYM">     0</i>
  <i name="ENCUT">    520.00000000</i>
  <i name="ENAUG">   1040.00000000</i>
  <v name="MAGMOM">     -5.00000000      5.00000000     -5.00000000      5.00000000      0.00000000      0.00000000      0.00000000      0.00000000      0.00000000      0.00000000      0.00000000      0.00000000</v>
  <i type="logical" name="LREAL"> F  </i>
  <i type="int" name="ISMEAR">     0</i>
  <i name="SIGMA">      0.01000000</i>
  <i name="KSPACING">      0.22000000</i>
  <i type="int" name="LMAXMIX">     4</i>
  <i type="logical" name="LWAVE"> T  </i>
  <i type="logical" name="LCHARG"> T  </i>
  <i type="logical" name="LVHAR"> T  </i>
  <i type="int" name="LORBIT">     0</i>
  <i type="logical" name="LASPH"> T  </i>
  <i type="logical" name="LAECHG"> T  </i>
  <v type="int" name="KPOINT_BSE">    -1     0     0     0</v>
  <i type="int" name="NELM">   100</i>
  <i type="string" name="GGA"> Pe</i>
  <i type="logical" name="LASPH"> T  </i>
 </incar>
 <structure name="primitive_cell" >
  <crystal>
   <varray name="basis" >
    <v>       2.87398817      -0.00000383      -0.00000314 </v>
    <v>      -0.00000691       4.60267210       0.00001729 </v>
    <v>      -0.00000706       0.00003481       9.35828387 </v>
   </varray>
   <i name="volume">    123.79161466 </i>
   <varray name="rec_basis" >
    <v>       0.34794854       0.00000052       0.00000026 </v>
    <v>       0.00000029       0.21726510      -0.00000081 </v>
    <v>       0.00000012      -0.00000040       0.10685720 </v>
   </varray>
  </crystal>
  <varray name="positions" >
   <v>       0.24999997       0.01657458      -0.13501728 </v>
   <v>      -0.25000265      -0.19634390      -0.21684973 </v>
   <v>      -0.25000030       0.20650615      -0.03784627 </v>
   <v>       0.25000023       0.30361118      -0.28316632 </v>
   <v>       0.24999897      -0.20644964       0.03785363 </v>
   <v>      -0.24999956      -0.01652491       0.13502990 </v>
   <v>       0.25000110      -0.29355107      -0.46214996 </v>
   <v>       0.24999840       0.19639349       0.21683188 </v>
   <v>      -0.24999604      -0.48347050      -0.36497313 </v>
   <v>      -0.24999978       0.29348800       0.46215526 </v>
   <v>      -0.25000017      -0.30365560       0.28315235 </v>
   <v>       0.24999982       0.48342323       0.36498065 </v>
  </varray>
 </structure>
 <varray name="primitive_index" >
  <v type="int" >        1 </v>
  <v type="int" >       12 </v>
  <v type="int" >        6 </v>
  <v type="int" >       10 </v>
  <v type="int" >        7 </v>
  <v type="int" >        2 </v>
  <v type="int" >        5 </v>
  <v type="int" >        9 </v>
  <v type="int" >        3 </v>
  <v type="int" >        8 </v>
  <v type="int" >       11 </v>
  <v type="int" >        4 </v>
 </varray>
 <kpoints>
  <generation param="Gamma">
   <v type="int" name="divisions">      10        7        4 </v>
   <v name="usershift">      0.00000000       0.00000000       0.00000000 </v>
   <v name="genvec1">      0.10000000      -0.00000000       0.00000000 </v>
   <v name="genvec2">     -0.00000000       0.14285714       0.00000000 </v>
   <v name="genvec3">     -0.00000000       0.00000000       0.25000000 </v>
   <v name="shift">      0.00000000       0.00000000       0.00000000 </v>
  </generation>
  <varray name="kpointlist" >
   <v>       0.00000000       0.00000000       0.00000000 </v>
   <v>       0.10000000       0.00000000      -0.00000000 </v>
   <v>       0.20000000       0.00000000      -0.00000000 </v>
   <v>       0.30000000       0.00000000      -0.00000000 </v>
   <v>       0.40000000       0.00000000      -0.00000000 </v>
   <v>       0.50000000       0.00000000      -0.00000000 </v>
   <v>       0.00000000       0.14285714      -0.00000000 </v>
   <v>       0.10000000       0.14285714      -0.00000000 </v>
   <v>       0.20000000       0.14285714      -0.00000000 </v>
   <v>       0.30000000       0.14285714      -0.00000000 </v>
   <v>       0.40000000       0.14285714      -0.00000000 </v>
   <v>       0.50000000       0.14285714      -0.00000000 </v>
   <v>      -0.40000000       0.14285714       0.00000000 </v>
   <v>      -0.30000000       0.14285714      -0.00000000 </v>
   <v>      -0.20000000       0.14285714      -0.00000000 </v>
   <v>      -0.10000000       0.14285714      -0.00000000 </v>
   <v>       0.00000000       0.28571429      -0.00000000 </v>
   <v>       0.10000000       0.28571429      -0.00000000 </v>
   <v>       0.20000000       0.28571429      -0.00000000 </v>
   <v>       0.30000000       0.28571429      -0.00000000 </v>
   <v>       0.40000000       0.28571429      -0.00000000 </v>
   <v>       0.50000000       0.28571429      -0.00000000 </v>
   <v>      -0.40000000       0.28571429       0.00000000 </v>
   <v>      -0.30000000       0.28571429       0.00000000 </v>
   <v>      -0.20000000       0.28571429      -0.00000000 </v>
   <v>      -0.10000000       0.28571429       0.00000000 </v>
   <v>       0.00000000       0.42857143      -0.00000000 </v>
   <v>       0.10000000       0.42857143       0.00000000 </v>
   <v>       0.20000000       0.42857143      -0.00000000 </v>
   <v>       0.30000000       0.42857143      -0.00000000 </v>
   <v>       0.40000000       0.42857143       0.00000000 </v>
   <v>       0.50000000       0.42857143      -0.00000000 </v>
   <v>      -0.40000000       0.42857143      -0.00000000 </v>
   <v>      -0.30000000       0.42857143       0.00000000 </v>
   <v>      -0.20000000       0.42857143       0.00000000 </v>
   <v>      -0.10000000       0.42857143       0.00000000 </v>
   <v>      -0.00000000       0.00000000       0.25000000 </v>
   <v>       0.10000000      -0.00000000       0.25000000 </v>
   <v>       0.20000000       0.00000000       0.25000000 </v>
   <v>       0.30000000      -0.00000000       0.25000000 </v>
   <v>       0.40000000       0.00000000       0.25000000 </v>
   <v>       0.50000000       0.00000000       0.25000000 </v>
   <v>      -0.40000000      -0.00000000       0.25000000 </v>
   <v>      -0.30000000      -0.00000000       0.25000000 </v>
   <v>      -0.20000000      -0.00000000       0.25000000 </v>
   <v>      -0.10000000       0.00000000       0.25000000 </v>
   <v>      -0.00000000       0.14285714       0.25000000 </v>
   <v>       0.10000000       0.14285714       0.25000000 </v>
   <v>       0.20000000       0.14285714       0.25000000 </v>
   <v>       0.30000000       0.14285714       0.25000000 </v>
   <v>       0.40000000       0.14285714       0.25000000 </v>
   <v>       0.50000000       0.14285714       0.25000000 </v>
   <v>      -0.40000000       0.14285714       0.25000000 </v>
   <v>      -0.30000000       0.14285714       0.25000000 </v>
   <v>      -0.20000000       0.14285714       0.25000000 </v>
   <v>      -0.10000000       0.14285714       0.25000000 </v>
   <v>       0.00000000       0.28571429       0.25000000 </v>
   <v>       0.10000000       0.28571429       0.25000000 </v>
   <v>       0.20000000       0.28571429       0.25000000 </v>
   <v>       0.30000000       0.28571429       0.25000000 </v>
   <v>       0.40000000       0.28571429       0.25000000 </v>
   <v>       0.50000000       0.28571429       0.25000000 </v>
   <v>      -0.40000000       0.28571429       0.25000000 </v>
   <v>      -0.30000000       0.28571429       0.25000000 </v>
   <v>      -0.20000000       0.28571429       0.25000000 </v>
   <v>      -0.10000000       0.28571429       0.25000000 </v>
   <v>       0.00000000       0.42857143       0.25000000 </v>
   <v>       0.10000000       0.42857143       0.25000000 </v>
   <v>       0.20000000       0.42857143       0.25000000 </v>
   <v>       0.30000000       0.42857143       0.25000000 </v>
   <v>       0.40000000       0.42857143       0.25000000 </v>
   <v>       0.50000000       0.42857143       0.25000000 </v>
   <v>      -0.40000000       0.42857143       0.25000000 </v>
   <v>      -0.30000000       0.42857143       0.25000000 </v>
   <v>      -0.20000000       0.42857143       0.25000000 </v>
   <v>      -0.10000000       0.42857143       0.25000000 </v>
   <v>      -0.00000000      -0.42857143       0.25000000 </v>
   <v>       0.10000000      -0.42857143       0.25000000 </v>
   <v>       0.20000000      -0.42857143       0.25000000 </v>
   <v>       0.30000000      -0.42857143       0.25000000 </v>
   <v>       0.40000000      -0.42857143       0.25000000 </v>
   <v>       0.50000000      -0.42857143       0.25000000 </v>
   <v>      -0.40000000      -0.42857143       0.25000000 </v>
   <v>      -0.30000000      -0.42857143       0.25000000 </v>
   <v>      -0.20000000      -0.42857143       0.25000000 </v>
   <v>      -0.10000000      -0.42857143       0.25000000 </v>
   <v>      -0.00000000      -0.28571429       0.25000000 </v>
   <v>       0.10000000      -0.28571429       0.25000000 </v>
   <v>       0.20000000      -0.28571429       0.25000000 </v>
   <v>       0.30000000      -0.28571429       0.25000000 </v>
   <v>       0.40000000      -0.28571429       0.25000000 </v>
   <v>       0.50000000      -0.28571429       0.25000000 </v>
   <v>      -0.40000000      -0.28571429       0.25000000 </v>
   <v>      -0.30000000      -0.28571429       0.25000000 </v>
   <v>      -0.20000000      -0.28571429       0.25000000 </v>
   <v>      -0.10000000      -0.28571429       0.25000000 </v>
   <v>      -0.00000000      -0.14285714       0.25000000 </v>
   <v>       0.10000000      -0.14285714       0.25000000 </v>
   <v>       0.20000000      -0.14285714       0.25000000 </v>
   <v>       0.30000000      -0.14285714       0.25000000 </v>
   <v>       0.40000000      -0.14285714       0.25000000 </v>
   <v>       0.50000000      -0.14285714       0.25000000 </v>
   <v>      -0.40000000      -0.14285714       0.25000000 </v>
   <v>      -0.30000000      -0.14285714       0.25000000 </v>
   <v>      -0.20000000      -0.14285714       0.25000000 </v>
   <v>      -0.10000000      -0.14285714       0.25000000 </v>
   <v>      -0.00000000       0.00000000       0.50000000 </v>
   <v>       0.10000000       0.00000000       0.50000000 </v>
   <v>       0.20000000      -0.00000000       0.50000000 </v>
   <v>       0.30000000       0.00000000       0.50000000 </v>
   <v>       0.40000000       0.00000000       0.50000000 </v>
   <v>       0.50000000       0.00000000       0.50000000 </v>
   <v>       0.00000000       0.14285714       0.50000000 </v>
   <v>       0.10000000       0.14285714       0.50000000 </v>
   <v>       0.20000000       0.14285714       0.50000000 </v>
   <v>       0.30000000       0.14285714       0.50000000 </v>
   <v>       0.40000000       0.14285714       0.50000000 </v>
   <v>       0.50000000       0.14285714       0.50000000 </v>
   <v>      -0.40000000       0.14285714       0.50000000 </v>
   <v>      -0.30000000       0.14285714       0.50000000 </v>
   <v>      -0.20000000       0.14285714       0.50000000 </v>
   <v>      -0.10000000       0.14285714       0.50000000 </v>
   <v>       0.00000000       0.28571429       0.50000000 </v>
   <v>       0.10000000       0.28571429       0.50000000 </v>
   <v>       0.20000000       0.28571429       0.50000000 </v>
   <v>       0.30000000       0.28571429       0.50000000 </v>
   <v>       0.40000000       0.28571429       0.50000000 </v>
   <v>       0.50000000       0.28571429       0.50000000 </v>
   <v>      -0.40000000       0.28571429       0.50000000 </v>
   <v>      -0.30000000       0.28571429       0.50000000 </v>
   <v>      -0.20000000       0.28571429       0.50000000 </v>
   <v>      -0.10000000       0.28571429       0.50000000 </v>
   <v>       0.00000000       0.42857143       0.50000000 </v>
   <v>       0.10000000       0.42857143       0.50000000 </v>
   <v>       0.20000000       0.42857143       0.50000000 </v>
   <v>       0.30000000       0.42857143       0.50000000 </v>
   <v>       0.40000000       0.42857143       0.50000000 </v>
   <v>       0.50000000       0.42857143       0.50000000 </v>
   <v>      -0.40000000       0.42857143       0.50000000 </v>
   <v>      -0.30000000       0.42857143       0.50000000 </v>
   <v>      -0.20000000       0.42857143       0.50000000 </v>
   <v>      -0.10000000       0.42857143       0.50000000 </v>
  </varray>
  <varray name="weights" >
   <v>       0.00357143 </v>
   <v>       0.00714286 </v>
   <v>       0.00714286 </v>
   <v>       0.00714286 </v>
   <v>       0.00714286 </v>
   <v>       0.00357143 </v>
   <v>       0.00714286 </v>
   <v>       0.00714286 </v>
   <v>       0.00714286 </v>
   <v>       0.00714286 </v>
   <v>       0.00714286 </v>
   <v>       0.00714286 </v>
   <v>       0.00714286 </v>
   <v>       0.00714286 </v>
   <v>       0.00714286 </v>
   <v>       0.00714286 </v>
   <v>       0.00714286 </v>
   <v>       0.00714286 </v>
   <v>       0.00714286 </v>
   <v>       0.00714286 </v>
   <v>       0.00714286 </v>
   <v>       0.00714286 </v>
   <v>       0.00714286 </v>
   <v>       0.00714286 </v>
   <v>       0.00714286 </v>
   <v>       0.00714286 </v>
   <v>       0.00714286 </v>
   <v>       0.00714286 </v>
   <v>       0.00714286 </v>
   <v>       0.00714286 </v>
   <v>       0.00714286 </v>
   <v>       0.00714286 </v>
   <v>       0.00714286 </v>
   <v>       0.00714286 </v>
   <v>       0.00714286 </v>
   <v>       0.00714286 </v>
   <v>       0.00714286 </v>
   <v>       0.00714286 </v>
   <v>       0.00714286 </v>
   <v>       0.00714286 </v>
   <v>       0.00714286 </v>
   <v>       0.00714286 </v>
   <v>       0.00714286 </v>
   <v>       0.00714286 </v>
   <v>       0.00714286 </v>
   <v>       0.00714286 </v>
   <v>       0.00714286 </v>
   <v>       0.00714286 </v>
   <v>       0.00714286 </v>
   <v>       0.00714286 </v>
   <v>       0.00714286 </v>
   <v>       0.00714286 </v>
   <v>       0.00714286 </v>
   <v>       0.00714286 </v>
   <v>       0.00714286 </v>
   <v>       0.00714286 </v>
   <v>       0.00714286 </v>
   <v>       0.00714286 </v>
   <v>       0.00714286 </v>
   <v>       0.00714286 </v>
   <v>       0.00714286 </v>
   <v>       0.00714286 </v>
   <v>       0.00714286 </v>
   <v>       0.00714286 </v>
   <v>       0.00714286 </v>
   <v>       0.00714286 </v>
   <v>       0.00714286 </v>
   <v>       0.00714286 </v>
   <v>       0.00714286 </v>
   <v>       0.00714286 </v>
   <v>       0.00714286 </v>
   <v>       0.00714286 </v>
   <v>       0.00714286 </v>
   <v>       0.00714286 </v>
   <v>       0.00714286 </v>
   <v>       0.00714286 </v>
   <v>       0.00714286 </v>
   <v>       0.00714286 </v>
   <v>       0.00714286 </v>
   <v>       0.00714286 </v>
   <v>       0.00714286 </v>
   <v>       0.00714286 </v>
   <v>       0.00714286 </v>
   <v>       0.00714286 </v>
   <v>       0.00714286 </v>
   <v>       0.00714286 </v>
   <v>       0.00714286 </v>
   <v>       0.00714286 </v>
   <v>       0.00714286 </v>
   <v>       0.00714286 </v>
   <v>       0.00714286 </v>
   <v>       0.00714286 </v>
   <v>       0.00714286 </v>
   <v>       0.00714286 </v>
   <v>       0.00714286 </v>
   <v>       0.00714286 </v>
   <v>       0.00714286 </v>
   <v>       0.00714286 </v>
   <v>       0.00714286 </v>
   <v>       0.00714286 </v>
   <v>       0.00714286 </v>
   <v>       0.00714286 </v>
   <v>       0.00714286 </v>
   <v>       0.00714286 </v>
   <v>       0.00714286 </v>
   <v>       0.00714286 </v>
   <v>       0.00357143 </v>
   <v>       0.00714286 </v>
   <v>       0.00714286 </v>
   <v>       0.00714286 </v>
   <v>       0.00714286 </v>
   <v>       0.00357143 </v>
   <v>       0.00714286 </v>
   <v>       0.00714286 </v>
   <v>       0.00714286 </v>
   <v>       0.00714286 </v>
   <v>       0.00714286 </v>
   <v>       0.00714286 </v>
   <v>       0.00714286 </v>
   <v>       0.00714286 </v>
   <v>       0.00714286 </v>
   <v>       0.00714286 </v>
   <v>       0.00714286 </v>
   <v>       0.00714286 </v>
   <v>       0.00714286 </v>
   <v>       0.00714286 </v>
   <v>       0.00714286 </v>
   <v>       0.00714286 </v>
   <v>       0.00714286 </v>
   <v>       0.00714286 </v>
   <v>       0.00714286 </v>
   <v>       0.00714286 </v>
   <v>       0.00714286 </v>
   <v>       0.00714286 </v>
   <v>       0.00714286 </v>
   <v>       0.00714286 </v>
   <v>       0.00714286 </v>
   <v>       0.00714286 </v>
   <v>       0.00714286 </v>
   <v>       0.00714286 </v>
   <v>       0.00714286 </v>
   <v>       0.00714286 </v>
  </varray>
 </kpoints>
 <parameters>
  <separator name="general" >
   <i type="string" name="SYSTEM">unknown system</i>
   <i type="logical" name="LCOMPAT"> F  </i>
  </separator>
  <separator name="electronic" >
   <i type="string" name="PREC">accura</i>
   <i name="ENMAX">    520.00000000</i>
   <i name="ENAUG">   1040.00000000</i>
   <i name="EDIFF">      0.00000100</i>
   <i type="int" name="IALGO">    68</i>
   <i type="int" name="IWAVPR">    10</i>
   <i type="int" name="NBANDS">    60</i>
   <i name="NELECT">    100.00000000</i>
   <i type="int" name="TURBO">     0</i>
   <i type="int" name="IRESTART">     0</i>
   <i type="int" name="NREBOOT">     0</i>
   <i type="int" name="NMIN">     0</i>
   <i name="EREF">      0.00000000</i>
   <separator name="electronic smearing" >
    <i type="int" name="ISMEAR">     0</i>
    <i name="SIGMA">      0.01000000</i>
    <i name="KSPACING">      0.22000000</i>
    <i type="logical" name="KGAMMA"> T  </i>
   </separator>
   <separator name="electronic projectors" >
    <i type="logical" name="LREAL"> F  </i>
    <v name="ROPT">      0.00000000      0.00000000</v>
    <i type="int" name="LMAXPAW">  -100</i>
    <i type="int" name="LMAXMIX">     4</i>
    <i type="logical" name="NLSPLINE"> F  </i>
   </separator>
   <separator name="electronic startup" >
    <i type="int" name="ISTART">     1</i>
    <i type="int" name="ICHARG">     0</i>
    <i type="int" name="INIWAV">     1</i>
   </separator>
   <separator name="electronic spin" >
    <i type="int" name="ISPIN">     2</i>
    <i type="logical" name="LNONCOLLINEAR"> F  </i>
    <v name="MAGMOM">     -5.00000000      5.00000000     -5.00000000      5.00000000      0.00000000      0.00000000      0.00000000      0.00000000      0.00000000      0.00000000      0.00000000      0.00000000</v>
    <i name="NUPDOWN">     -1.00000000</i>
    <i type="logical" name="LSORBIT"> F  </i>
    <v name="SAXIS">      0.00000000      0.00000000      1.00000000</v>
    <i type="logical" name="LSPIRAL"> F  </i>
    <v name="QSPIRAL">      0.00000000      0.00000000      0.00000000</v>
    <i type="logical" name="LZEROZ"> F  </i>
   </separator>
   <separator name="electronic exchange-correlation" >
    <i type="logical" name="LASPH"> T  </i>
    <i type="logical" name="LMETAGGA"> F  </i>
   </separator>
   <separator name="electronic convergence" >
    <i type="int" name="NELM">   100</i>
    <i type="int" name="NELMDL">     0</i>
    <i type="int" name="NELMIN">     2</i>
    <i name="ENINI">    520.00000000</i>
    <separator name="electronic convergence detail" >
     <i type="logical" name="LDIAG"> T  </i>
     <i type="logical" name="LSUBROT"> F  </i>
     <i name="WEIMIN">      0.00000000</i>
     <i name="EBREAK">      0.00000000</i>
     <i name="DEPER">      0.30000000</i>
     <i type="int" name="NRMM">     4</i>
     <i name="TIME">      0.40000000</i>
    </separator>
   </separator>
   <separator name="electronic mixer" >
    <i name="AMIX">      0.40000000</i>
    <i name="BMIX">      1.00000000</i>
    <i name="AMIN">      0.10000000</i>
    <i name="AMIX_MAG">      1.60000000</i>
    <i name="BMIX_MAG">      1.00000000</i>
    <separator name="electronic mixer details" >
     <i type="int" name="IMIX">     4</i>
     <i type="logical" name="MIXFIRST"> F  </i>
     <i type="int" name="MAXMIX">   -45</i>
     <i name="WC">    100.00000000</i>
     <i type="int" name="INIMIX">     1</i>
     <i type="int" name="MIXPRE">     1</i>
     <i type="int" name="MREMOVE">     5</i>
    </separator>
   </separator>
   <separator name="electronic dipolcorrection" >
    <i type="logical" name="LDIPOL"> F  </i>
    <i type="logical" name="LMONO"> F  </i>
    <i type="int" name="IDIPOL">     0</i>
    <i name="EPSILON">      1.00000000</i>
    <v name="DIPOL">   -100.00000000   -100.00000000   -100.00000000</v>
    <i name="EFIELD">      0.00000000</i>
   </separator>
  </separator>
  <separator name="grids" >
   <i type="int" name="NGX">    24</i>
   <i type="int" name="NGY">    36</i>
   <i type="int" name="NGZ">    70</i>
   <i type="int" name="NGXF">    48</i>
   <i type="int" name="NGYF">    72</i>
   <i type="int" name="NGZF">   140</i>
   <i type="logical" name="ADDGRID"> F  </i>
  </separator>
  <separator name="ionic" >
   <i type="int" name="NSW">     0</i>
   <i type="int" name="IBRION">    -1</i>
   <i type="int" name="MDALGO">     0</i>
   <i type="int" name="ISIF">     3</i>
   <i name="PSTRESS">      0.00000000</i>
   <i name="EDIFFG">     -0.03000000</i>
   <i type="int" name="NFREE">     1</i>
   <i name="POTIM">      0.50000000</i>
   <i name="SMASS">     -3.00000000</i>
   <i name="SCALEE">      1.00000000</i>
  </separator>
  <separator name="ionic md" >
   <i name="TEBEG">      0.00010000</i>
   <i name="TEEND">      0.00010000</i>
   <i type="int" name="NBLOCK">     1</i>
   <i type="int" name="KBLOCK">     1</i>
   <i type="int" name="NPACO">   256</i>
   <i name="APACO">     16.00000000</i>
  </separator>
  <separator name="symmetry" >
   <i type="int" name="ISYM">     0</i>
   <i name="SYMPREC">      0.00001000</i>
  </separator>
  <separator name="dos" >
   <i type="int" name="LORBIT">     0</i>
   <v name="RWIGS">     -1.00000000     -1.00000000</v>
   <i type="int" name="NEDOS">   301</i>
   <i name="EMIN">     10.00000000</i>
   <i name="EMAX">    -10.00000000</i>
   <i name="EFERMI">      0.00000000</i>
  </separator>
  <separator name="writing" >
   <i type="int" name="NWRITE">     2</i>
   <i type="logical" name="LWAVE"> T  </i>
   <i type="logical" name="LDOWNSAMPLE"> F  </i>
   <i type="logical" name="LCHARG"> T  </i>
   <i type="logical" name="LPARD"> F  </i>
   <i type="logical" name="LVTOT"> F  </i>
   <i type="logical" name="LVHAR"> T  </i>
   <i type="logical" name="LELF"> F  </i>
   <i type="logical" name="LOPTICS"> F  </i>
   <v name="STM">      0.00000000      0.00000000      0.00000000      0.00000000      0.00000000      0.00000000      0.00000000</v>
  </separator>
  <separator name="performance" >
   <i type="int" name="NPAR">     4</i>
   <i type="int" name="NSIM">     4</i>
   <i type="int" name="NBLK">    -1</i>
   <i type="logical" name="LPLANE"> T  </i>
   <i type="logical" name="LSCALAPACK"> T  </i>
   <i type="logical" name="LSCAAWARE"> F  </i>
   <i type="logical" name="LSCALU"> F  </i>
   <i type="logical" name="LASYNC"> F  </i>
   <i type="logical" name="LORBITALREAL"> F  </i>
  </separator>
  <separator name="miscellaneous" >
   <i type="int" name="IDIOT">     3</i>
   <i type="int" name="ISPECIAL">     0</i>
   <i type="logical" name="LMUSIC"> F  </i>
   <v name="POMASS">     54.93800000     16.00000000</v>
   <v name="DARWINR">      0.00000000      0.00000000</v>
   <v name="DARWINV">      1.00000000      1.00000000</v>
   <i type="logical" name="LCORR"> T  </i>
  </separator>
  <i type="logical" name="GGA_COMPAT"> T  </i>
  <i type="logical" name="LBERRY"> F  </i>
  <i type="int" name="ICORELEVEL">     0</i>
  <i type="logical" name="LDAU"> F  </i>
  <i type="int" name="I_CONSTRAINED_M">     0</i>
  <separator name="electronic exchange-correlation" >
   <i type="string" name="GGA">PE</i>
   <i type="int" name="VOSKOWN">     0</i>
   <i type="logical" name="LHFCALC"> F  </i>
   <i type="string" name="PRECFOCK"></i>
   <i type="logical" name="LSYMGRAD"> F  </i>
   <i type="logical" name="LHFONE"> F  </i>
   <i type="logical" name="LRHFCALC"> F  </i>
   <i type="logical" name="LTHOMAS"> F  </i>
   <i type="logical" name="LMODELHF"> F  </i>
   <i name="ENCUT4O">     -1.00000000</i>
   <i type="int" name="EXXOEP">     0</i>
   <i type="int" name="FOURORBIT">     0</i>
   <i name="AEXX">      0.00000000</i>
   <i name="HFALPHA">      0.00000000</i>
   <i name="MCALPHA">      0.00000000</i>
   <i name="ALDAX">      1.00000000</i>
   <i name="AGGAX">      1.00000000</i>
   <i name="ALDAC">      1.00000000</i>
   <i name="AGGAC">      1.00000000</i>
   <i type="int" name="NKREDX">     1</i>
   <i type="int" name="NKREDY">     1</i>
   <i type="int" name="NKREDZ">     1</i>
   <i type="logical" name="SHIFTRED"> F  </i>
   <i type="logical" name="ODDONLY"> F  </i>
   <i type="logical" name="EVENONLY"> F  </i>
   <i type="int" name="LMAXFOCK">     0</i>
   <i type="int" name="NMAXFOCKAE">     0</i>
   <i type="logical" name="LFOCKAEDFT"> F  </i>
   <i name="HFSCREEN">      0.00000000</i>
   <i name="HFSCREENC">      0.00000000</i>
   <i type="int" name="NBANDSGWLOW">     0</i>
  </separator>
  <separator name="vdW DFT" >
   <i type="logical" name="LUSE_VDW"> F  </i>
   <i name="Zab_VDW">     -0.84910000</i>
   <i name="PARAM1">      0.12340000</i>
   <i name="PARAM2">      1.00000000</i>
   <i name="PARAM3">      0.00000000</i>
  </separator>
  <separator name="model GW" >
   <i type="int" name="MODEL_GW">     0</i>
   <i name="MODEL_EPS0">      6.18958073</i>
   <i name="MODEL_ALPHA">      1.00000000</i>
  </separator>
  <separator name="linear response parameters" >
   <i type="logical" name="LEPSILON"> F  </i>
   <i type="logical" name="LRPA"> F  </i>
   <i type="logical" name="LNABLA"> F  </i>
   <i type="logical" name="LVEL"> F  </i>
   <i type="int" name="KINTER">     0</i>
   <i name="CSHIFT">      0.10000000</i>
   <i name="OMEGAMAX">     -1.00000000</i>
   <i name="DEG_THRESHOLD">      0.00200000</i>
   <i name="RTIME">     -0.10000000</i>
   <i name="WPLASMAI">      0.00000000</i>
   <v name="DFIELD">      0.00000000      0.00000000      0.00000000</v>
   <v name="WPLASMA">      0.00000000      0.00000000      0.00000000      0.00000000      0.00000000      0.00000000      0.00000000      0.00000000      0.00000000</v>
  </separator>
  <separator name="orbital magnetization" >
   <i type="logical" name="NUCIND"> F  </i>
   <v name="MAGPOS">      0.00000000      0.00000000      0.00000000</v>
   <i type="logical" name="LNICSALL"> T  </i>
   <i type="logical" name="ORBITALMAG"> F  </i>
   <i type="logical" name="LMAGBLOCH"> F  </i>
   <i type="logical" name="LCHIMAG"> F  </i>
   <i type="logical" name="LGAUGE"> T  </i>
   <i type="int" name="MAGATOM">     0</i>
   <v name="MAGDIPOL">      0.00000000      0.00000000      0.00000000</v>
   <v name="AVECCONST">      0.00000000      0.00000000      0.00000000</v>
  </separator>
  <separator name="response functions" >
   <i type="logical" name="LADDER"> F  </i>
   <i type="logical" name="LRPAFORCE"> F  </i>
   <i type="logical" name="LFXC"> F  </i>
   <i type="logical" name="LHARTREE"> T  </i>
   <i type="int" name="IBSE">     0</i>
   <v type="int" name="KPOINT">    -1     0     0     0</v>
   <i type="logical" name="LTCTE"> F  </i>
   <i type="logical" name="LTETE"> F  </i>
   <i type="logical" name="LTRIPLET"> F  </i>
   <i type="logical" name="LFXCEPS"> F  </i>
   <i type="logical" name="LFXHEG"> F  </i>
   <i type="int" name="NATURALO">     2</i>
   <i type="logical" name="L2ORDER"> F  </i>
   <i type="logical" name="LMP2LT"> F  </i>
   <i type="logical" name="LUSEW"> F  </i>
   <i name="ENCUTGW">     -2.00000000</i>
   <i name="ENCUTGWSOFT">     -2.00000000</i>
   <i name="ENCUTLF">     -1.00000000</i>
   <i type="int" name="LMAXMP2">    -1</i>
   <i name="SCISSOR">      0.00000000</i>
   <i type="int" name="NOMEGA">     0</i>
   <i type="int" name="NOMEGAR">     0</i>
   <i type="int" name="NBANDSGW">    -1</i>
   <i type="int" name="NBANDSO">    -1</i>
   <i type="int" name="NBANDSV">    -1</i>
   <i type="int" name="NELM">   100</i>
   <i type="int" name="NELMHF">     1</i>
   <i type="int" name="DIM">     3</i>
   <i type="int" name="ANTIRES">     0</i>
   <i name="OMEGAMAX">    -30.00000000</i>
   <i name="OMEGAMIN">    -30.00000000</i>
   <i name="OMEGATL">   -200.00000000</i>
   <i type="int" name="OMEGAGRID">   140</i>
   <i name="CSHIFT">     -0.10000000</i>
   <i type="logical" name="SELFENERGY"> F  </i>
   <i type="logical" name="LSPECTRAL"> F  </i>
   <i type="logical" name="LSPECTRALGW"> F  </i>
   <i type="logical" name="LSINGLES"> F  </i>
   <i type="logical" name="LFERMIGW"> F  </i>
   <i type="logical" name="ODDONLYGW"> F  </i>
   <i type="logical" name="EVENONLYGW"> F  </i>
   <i type="int" name="NKREDLFX">     1</i>
   <i type="int" name="NKREDLFY">     1</i>
   <i type="int" name="NKREDLFZ">     1</i>
   <i type="int" name="MAXMEM">  2800</i>
   <i type="int" name="TELESCOPE">     0</i>
   <i type="int" name="TAUPAR">     1</i>
   <i type="int" name="OMEGAPAR">    -1</i>
   <i name="LAMBDA">      1.00000000</i>
  </separator>
  <separator name="External order field" >
   <i name="OFIELD_KAPPA">      0.00000000</i>
   <v name="OFIELD_K">      0.00000000      0.00000000      0.00000000</v>
   <i name="OFIELD_Q6_NEAR">      0.00000000</i>
   <i name="OFIELD_Q6_FAR">      0.00000000</i>
   <i name="OFIELD_A">      0.00000000</i>
  </separator>
 </parameters>
 <atominfo>
  <atoms>      12 </atoms>
  <types>       2 </types>
  <array name="atoms" >
   <dimension dim="1">ion</dimension>
   <field type="string">element</field>
   <field type="int">atomtype</field>
   <set>
    <rc><c>Mn</c><c>   1</c></rc>
    <rc><c>Mn</c><c>   1</c></rc>
    <rc><c>Mn</c><c>   1</c></rc>
    <rc><c>Mn</c><c>   1</c></rc>
    <rc><c>O </c><c>   2</c></rc>
    <rc><c>O </c><c>   2</c></rc>
    <rc><c>O </c><c>   2</c></rc>
    <rc><c>O </c><c>   2</c></rc>
    <rc><c>O </c><c>   2</c></rc>
    <rc><c>O </c><c>   2</c></rc>
    <rc><c>O </c><c>   2</c></rc>
    <rc><c>O </c><c>   2</c></rc>
   </set>
  </array>
  <array name="atomtypes" >
   <dimension dim="1">type</dimension>
   <field type="int">atomspertype</field>
   <field type="string">element</field>
   <field>mass</field>
   <field>valence</field>
   <field type="string">pseudopotential</field>
   <set>
    <rc><c>   4</c><c>Mn</c><c>     54.93800000</c><c>     13.00000000</c><c>  PAW_PBE Mn_pv 02Aug2007               </c></rc>
    <rc><c>   8</c><c>O </c><c>     16.00000000</c><c>      6.00000000</c><c>  PAW_PBE O 08Apr2002                   </c></rc>
   </set>
  </array>
 </atominfo>
 <structure name="initialpos" >
  <crystal>
   <varray name="basis" >
    <v>       2.87398817      -0.00000383      -0.00000314 </v>
    <v>      -0.00000691       4.60267210       0.00001729 </v>
    <v>      -0.00000706       0.00003481       9.35828387 </v>
   </varray>
   <i name="volume">    123.79161466 </i>
   <varray name="rec_basis" >
    <v>       0.34794854       0.00000052       0.00000026 </v>
    <v>       0.00000029       0.21726510      -0.00000081 </v>
    <v>       0.00000012      -0.00000040       0.10685720 </v>
   </varray>
  </crystal>
  <varray name="positions" >
   <v>       0.24999997       0.01657458       0.86498272 </v>
   <v>       0.75000044       0.98347509       0.13502990 </v>
   <v>       0.75000396       0.51652950       0.63502687 </v>
   <v>       0.24999982       0.48342323       0.36498065 </v>
   <v>       0.25000110       0.70644893       0.53785004 </v>
   <v>       0.74999970       0.20650615       0.96215373 </v>
   <v>       0.24999897       0.79355036       0.03785363 </v>
   <v>       0.75000022       0.29348800       0.46215526 </v>
   <v>       0.24999840       0.19639349       0.21683188 </v>
   <v>       0.25000023       0.30361118       0.71683368 </v>
   <v>       0.74999983       0.69634440       0.28315235 </v>
   <v>       0.74999735       0.80365610       0.78315027 </v>
  </varray>
 </structure>
 <calculation>
  <scstep>
   <time name="dav">   18.15   22.99</time>
   <time name="total">   19.72   24.75</time>
   <energy>
    <i name="alphaZ">    449.39211877 </i>
    <i name="ewald">  -7467.59889310 </i>
    <i name="hartreedc">  -3618.85538891 </i>
    <i name="XCdc">    498.98082997 </i>
    <i name="pawpsdc">  12019.12756643 </i>
    <i name="pawaedc"> -12258.12094511 </i>
    <i name="eentropy">     -0.00000000 </i>
    <i name="bandstr">  -1278.44058947 </i>
    <i name="atom">  11559.90638050 </i>
    <i name="e_fr_energy">    -95.60892091 </i>
    <i name="e_wo_entrp">    -95.60892091 </i>
    <i name="e_0_energy">    -95.60892091 </i>
   </energy>
  </scstep>
  <scstep>
   <time name="diag">    3.90    5.12</time>
   <time name="diis">    8.76   11.16</time>
   <time name="orth">    0.40    0.77</time>
   <time name="total">   14.34   18.84</time>
   <energy>
    <i name="e_fr_energy">    -95.60892503 </i>
    <i name="e_wo_entrp">    -95.60892503 </i>
    <i name="e_0_energy">    -95.60892503 </i>
   </energy>
  </scstep>
  <scstep>
   <time name="diag">    3.23    3.40</time>
   <time name="diis">    8.75    9.74</time>
   <time name="orth">    0.68    0.82</time>
   <time name="total">   13.98   15.59</time>
   <energy>
    <i name="e_fr_energy">    -95.60891798 </i>
    <i name="e_wo_entrp">    -95.60891798 </i>
    <i name="e_0_energy">    -95.60891798 </i>
   </energy>
  </scstep>
  <scstep>
   <time name="diag">    3.03    3.99</time>
   <time name="diis">    4.35    4.37</time>
   <time name="orth">    0.88    0.88</time>
   <time name="total">    8.69    9.74</time>
   <energy>
    <i name="alphaZ">    449.39211877 </i>
    <i name="ewald">  -7467.59889310 </i>
    <i name="hartreedc">  -3618.86836666 </i>
    <i name="XCdc">    498.98121026 </i>
    <i name="pawpsdc">  12019.28694979 </i>
    <i name="pawaedc"> -12258.28175966 </i>
    <i name="eentropy">     -0.00000000 </i>
    <i name="bandstr">  -1278.42655763 </i>
    <i name="atom">  11559.90638050 </i>
    <i name="e_fr_energy">    -95.60891773 </i>
    <i name="e_wo_entrp">    -95.60891773 </i>
    <i name="e_0_energy">    -95.60891773 </i>
   </energy>
  </scstep>
  <structure>
   <crystal>
    <varray name="basis" >
     <v>       2.87398817      -0.00000383      -0.00000314 </v>
     <v>      -0.00000691       4.60267210       0.00001729 </v>
     <v>      -0.00000706       0.00003481       9.35828387 </v>
    </varray>
    <i name="volume">    123.79161466 </i>
    <varray name="rec_basis" >
     <v>       0.34794854       0.00000052       0.00000026 </v>
     <v>       0.00000029       0.21726510      -0.00000081 </v>
     <v>       0.00000012      -0.00000040       0.10685720 </v>
    </varray>
   </crystal>
   <varray name="positions" >
    <v>       0.24999997       0.01657458       0.86498272 </v>
    <v>       0.75000044       0.98347509       0.13502990 </v>
    <v>       0.75000396       0.51652950       0.63502687 </v>
    <v>       0.24999982       0.48342323       0.36498065 </v>
    <v>       0.25000110       0.70644893       0.53785004 </v>
    <v>       0.74999970       0.20650615       0.96215373 </v>
    <v>       0.24999897       0.79355036       0.03785363 </v>
    <v>       0.75000022       0.29348800       0.46215526 </v>
    <v>       0.24999840       0.19639349       0.21683188 </v>
    <v>       0.25000023       0.30361118       0.71683368 </v>
    <v>       0.74999983       0.69634440       0.28315235 </v>
    <v>       0.74999735       0.80365610       0.78315027 </v>
   </varray>
  </structure>
  <varray name="forces" >
   <v>      -0.00007418       0.00623378      -0.00046083 </v>
   <v>      -0.00005623      -0.00946615      -0.00120123 </v>
   <v>      -0.00014934       0.00905835      -0.00063378 </v>
   <v>       0.00000003      -0.00645149       0.00017875 </v>
   <v>       0.00004228       0.01998729      -0.02038178 </v>
   <v>       0.00003939       0.01952846       0.02035347 </v>
   <v>      -0.00002368      -0.01986690      -0.02022712 </v>
   <v>      -0.00001512      -0.01926443       0.02008343 </v>
   <v>       0.00008915      -0.00791688       0.01216573 </v>
   <v>       0.00005236       0.00800143       0.01203301 </v>
   <v>       0.00001167      -0.00727332      -0.01104328 </v>
   <v>       0.00008369       0.00742987      -0.01086638 </v>
  </varray>
  <varray name="stress" >
   <v>       0.85991236       0.00308009       0.00226507 </v>
   <v>       0.00308051      -3.38664247      -0.00211438 </v>
   <v>       0.00226510      -0.00211408      -1.85073402 </v>
  </varray>
  <energy>
   <i name="e_fr_energy">    -95.60891773 </i>
   <i name="e_wo_entrp">    -95.60891773 </i>
   <i name="e_0_energy">     -0.00000000 </i>
  </energy>
  <time name="totalsc">   69.45   85.83</time>
  <eigenvalues>
   <array>
    <dimension dim="1">band</dimension>
    <dimension dim="2">kpoint</dimension>
    <dimension dim="3">spin</dimension>
    <field>eigene</field>
    <field>occ</field>
    <set>
     <set comment="spin 1">
      <set comment="kpoint 1">
       <r>  -46.5101    1.0000 </r>
       <r>  -46.5069    1.0000 </r>
       <r>  -46.4764    1.0000 </r>
       <r>  -46.4669    1.0000 </r>
       <r>  -46.4295    1.0000 </r>
       <r>  -46.4182    1.0000 </r>
       <r>  -43.5515    1.0000 </r>
       <r>  -43.5475    1.0000 </r>
       <r>  -43.5101    1.0000 </r>
       <r>  -43.4976    1.0000 </r>
       <r>  -43.3894    1.0000 </r>
       <r>  -43.3744    1.0000 </r>
       <r>  -15.5988    1.0000 </r>
       <r>  -15.0412    1.0000 </r>
       <r>  -14.6623    1.0000 </r>
       <r>  -13.9314    1.0000 </r>
       <r>  -13.6662    1.0000 </r>
       <r>  -13.5997    1.0000 </r>
       <r>  -13.5140    1.0000 </r>
       <r>  -13.4266    1.0000 </r>
       <r>   -3.0710    1.0000 </r>
       <r>   -2.4731    1.0000 </r>
       <r>   -2.3202    1.0000 </r>
       <r>   -1.7469    1.0000 </r>
       <r>   -1.6329    1.0000 </r>
       <r>   -1.4688    1.0000 </r>
       <r>   -1.4350    1.0000 </r>
       <r>   -1.3361    1.0000 </r>
       <r>   -0.8850    1.0000 </r>
       <r>   -0.8464    1.0000 </r>
       <r>   -0.6936    1.0000 </r>
       <r>   -0.2410    1.0000 </r>
       <r>   -0.1193    1.0000 </r>
       <r>    0.4713    1.0000 </r>
       <r>    0.6264    1.0000 </r>
       <r>    0.8788    1.0000 </r>
       <r>    0.8893    1.0000 </r>
       <r>    1.1532    1.0000 </r>
       <r>    1.3672    1.0000 </r>
       <r>    1.8545    1.0000 </r>
       <r>    2.0828    1.0000 </r>
       <r>    2.2834    1.0000 </r>
       <r>    2.3439    1.0000 </r>
       <r>    2.4892    1.0000 </r>
       <r>    2.6574    1.0000 </r>
       <r>    2.6665    1.0000 </r>
       <r>    2.6692    1.0000 </r>
       <r>    3.0122    1.0000 </r>
       <r>    3.2445    1.0000 </r>
       <r>    3.8377    1.0000 </r>
       <r>    4.8192    0.0000 </r>
       <r>    5.0119    0.0000 </r>
       <r>    5.1170    0.0000 </r>
       <r>    5.1389    0.0000 </r>
       <r>    5.2271    0.0000 </r>
       <r>    5.3877    0.0000 </r>
       <r>    6.4866    0.0000 </r>
       <r>    6.5822    0.0000 </r>
       <r>    6.6407    0.0000 </r>
       <r>    6.7789    0.0000 </r>
      </set>
      <set comment="kpoint 2">
       <r>  -46.5200    1.0000 </r>
       <r>  -46.5169    1.0000 </r>
       <r>  -46.4749    1.0000 </r>
       <r>  -46.4657    1.0000 </r>
       <r>  -46.4283    1.0000 </r>
       <r>  -46.4174    1.0000 </r>
       <r>  -43.5632    1.0000 </r>
       <r>  -43.5593    1.0000 </r>
       <r>  -43.5083    1.0000 </r>
       <r>  -43.4963    1.0000 </r>
       <r>  -43.3878    1.0000 </r>
       <r>  -43.3735    1.0000 </r>
       <r>  -15.5061    1.0000 </r>
       <r>  -14.9712    1.0000 </r>
       <r>  -14.5926    1.0000 </r>
       <r>  -13.9025    1.0000 </r>
       <r>  -13.6743    1.0000 </r>
       <r>  -13.6110    1.0000 </r>
       <r>  -13.5369    1.0000 </r>
       <r>  -13.4381    1.0000 </r>
       <r>   -2.9399    1.0000 </r>
       <r>   -2.3742    1.0000 </r>
       <r>   -2.2233    1.0000 </r>
       <r>   -1.6882    1.0000 </r>
       <r>   -1.6052    1.0000 </r>
       <r>   -1.5768    1.0000 </r>
       <r>   -1.5051    1.0000 </r>
       <r>   -1.3424    1.0000 </r>
       <r>   -0.9943    1.0000 </r>
       <r>   -0.7748    1.0000 </r>
       <r>   -0.5762    1.0000 </r>
       <r>   -0.2325    1.0000 </r>
       <r>   -0.0043    1.0000 </r>
       <r>    0.3790    1.0000 </r>
       <r>    0.5014    1.0000 </r>
       <r>    0.6305    1.0000 </r>
       <r>    0.6488    1.0000 </r>
       <r>    1.0860    1.0000 </r>
       <r>    1.4697    1.0000 </r>
       <r>    1.6314    1.0000 </r>
       <r>    1.8988    1.0000 </r>
       <r>    1.9751    1.0000 </r>
       <r>    2.2721    1.0000 </r>
       <r>    2.5604    1.0000 </r>
       <r>    2.5856    1.0000 </r>
       <r>    2.7181    1.0000 </r>
       <r>    2.8950    1.0000 </r>
       <r>    2.9876    1.0000 </r>
       <r>    3.3102    1.0000 </r>
       <r>    3.8211    1.0000 </r>
       <r>    4.8772    0.0000 </r>
       <r>    5.0343    0.0000 </r>
       <r>    5.2329    0.0000 </r>
       <r>    5.2861    0.0000 </r>
       <r>    5.2914    0.0000 </r>
       <r>    5.4356    0.0000 </r>
       <r>    6.3908    0.0000 </r>
       <r>    6.4000    0.0000 </r>
       <r>    6.4712    0.0000 </r>
       <r>    6.6741    0.0000 </r>
      </set>
      <set comment="kpoint 3">
       <r>  -46.5457    1.0000 </r>
       <r>  -46.5431    1.0000 </r>
       <r>  -46.4708    1.0000 </r>
       <r>  -46.4629    1.0000 </r>
       <r>  -46.4248    1.0000 </r>
       <r>  -46.4155    1.0000 </r>
       <r>  -43.5935    1.0000 </r>
       <r>  -43.5902    1.0000 </r>
       <r>  -43.5033    1.0000 </r>
       <r>  -43.4930    1.0000 </r>
       <r>  -43.3834    1.0000 </r>
       <r>  -43.3712    1.0000 </r>
       <r>  -15.2459    1.0000 </r>
       <r>  -14.7798    1.0000 </r>
       <r>  -14.4033    1.0000 </r>
       <r>  -13.8411    1.0000 </r>
       <r>  -13.6974    1.0000 </r>
       <r>  -13.6441    1.0000 </r>
       <r>  -13.5986    1.0000 </r>
       <r>  -13.4638    1.0000 </r>
       <r>   -2.5807    1.0000 </r>
       <r>   -2.1325    1.0000 </r>
       <r>   -1.9904    1.0000 </r>
       <r>   -1.8023    1.0000 </r>
       <r>   -1.6098    1.0000 </r>
       <r>   -1.6047    1.0000 </r>
       <r>   -1.3832    1.0000 </r>
       <r>   -1.3593    1.0000 </r>
       <r>   -1.0955    1.0000 </r>
       <r>   -0.7072    1.0000 </r>
       <r>   -0.5186    1.0000 </r>
       <r>   -0.4791    1.0000 </r>
       <r>   -0.1983    1.0000 </r>
       <r>   -0.0784    1.0000 </r>
       <r>    0.3463    1.0000 </r>
       <r>    0.5029    1.0000 </r>
       <r>    0.9252    1.0000 </r>
       <r>    0.9472    1.0000 </r>
       <r>    0.9766    1.0000 </r>
       <r>    1.3303    1.0000 </r>
       <r>    1.5692    1.0000 </r>
       <r>    1.6475    1.0000 </r>
       <r>    2.2343    1.0000 </r>
       <r>    2.5227    1.0000 </r>
       <r>    2.6262    1.0000 </r>
       <r>    2.7121    1.0000 </r>
       <r>    2.8564    1.0000 </r>
       <r>    3.0108    1.0000 </r>
       <r>    3.3821    1.0000 </r>
       <r>    3.7871    1.0000 </r>
       <r>    5.0428    0.0000 </r>
       <r>    5.1282    0.0000 </r>
       <r>    5.1974    0.0000 </r>
       <r>    5.3799    0.0000 </r>
       <r>    5.4540    0.0000 </r>
       <r>    5.6414    0.0000 </r>
       <r>    5.9841    0.0000 </r>
       <r>    6.1106    0.0000 </r>
       <r>    6.3530    0.0000 </r>
       <r>    6.7411    0.0000 </r>
      </set>
      <set comment="kpoint 4">
       <r>  -46.5773    1.0000 </r>
       <r>  -46.5754    1.0000 </r>
       <r>  -46.4656    1.0000 </r>
       <r>  -46.4597    1.0000 </r>
       <r>  -46.4203    1.0000 </r>
       <r>  -46.4134    1.0000 </r>
       <r>  -43.6306    1.0000 </r>
       <r>  -43.6283    1.0000 </r>
       <r>  -43.4969    1.0000 </r>
       <r>  -43.4894    1.0000 </r>
       <r>  -43.3776    1.0000 </r>
       <r>  -43.3686    1.0000 </r>
       <r>  -14.8706    1.0000 </r>
       <r>  -14.5197    1.0000 </r>
       <r>  -14.1540    1.0000 </r>
       <r>  -13.8147    1.0000 </r>
       <r>  -13.7526    1.0000 </r>
       <r>  -13.6940    1.0000 </r>
       <r>  -13.6600    1.0000 </r>
       <r>  -13.4893    1.0000 </r>
       <r>   -2.1287    1.0000 </r>
       <r>   -2.1201    1.0000 </r>
       <r>   -1.7865    1.0000 </r>
       <r>   -1.7706    1.0000 </r>
       <r>   -1.7430    1.0000 </r>
       <r>   -1.6721    1.0000 </r>
       <r>   -1.4319    1.0000 </r>
       <r>   -1.3509    1.0000 </r>
       <r>   -0.9589    1.0000 </r>
       <r>   -0.9395    1.0000 </r>
       <r>   -0.7795    1.0000 </r>
       <r>   -0.4753    1.0000 </r>
       <r>   -0.1873    1.0000 </r>
       <r>   -0.1164    1.0000 </r>
       <r>    0.1935    1.0000 </r>
       <r>    0.5484    1.0000 </r>
       <r>    0.5906    1.0000 </r>
       <r>    0.7521    1.0000 </r>
       <r>    1.0744    1.0000 </r>
       <r>    1.1370    1.0000 </r>
       <r>    1.2998    1.0000 </r>
       <r>    1.6619    1.0000 </r>
       <r>    1.8389    1.0000 </r>
       <r>    2.3355    1.0000 </r>
       <r>    2.4449    1.0000 </r>
       <r>    2.6145    1.0000 </r>
       <r>    2.8110    1.0000 </r>
       <r>    2.8267    1.0000 </r>
       <r>    3.4698    1.0000 </r>
       <r>    3.7674    1.0000 </r>
       <r>    4.8198    0.0000 </r>
       <r>    5.0628    0.0000 </r>
       <r>    5.4013    0.0000 </r>
       <r>    5.4116    0.0000 </r>
       <r>    5.4708    0.0000 </r>
       <r>    5.5477    0.0000 </r>
       <r>    5.9812    0.0000 </r>
       <r>    6.0547    0.0000 </r>
       <r>    6.3338    0.0000 </r>
       <r>    6.6540    0.0000 </r>
      </set>
      <set comment="kpoint 5">
       <r>  -46.6025    1.0000 </r>
       <r>  -46.6015    1.0000 </r>
       <r>  -46.4610    1.0000 </r>
       <r>  -46.4578    1.0000 </r>
       <r>  -46.4159    1.0000 </r>
       <r>  -46.4122    1.0000 </r>
       <r>  -43.6603    1.0000 </r>
       <r>  -43.6591    1.0000 </r>
       <r>  -43.4911    1.0000 </r>
       <r>  -43.4871    1.0000 </r>
       <r>  -43.3721    1.0000 </r>
       <r>  -43.3673    1.0000 </r>
       <r>  -14.4626    1.0000 </r>
       <r>  -14.2582    1.0000 </r>
       <r>  -13.9376    1.0000 </r>
       <r>  -13.8973    1.0000 </r>
       <r>  -13.8658    1.0000 </r>
       <r>  -13.7420    1.0000 </r>
       <r>  -13.6569    1.0000 </r>
       <r>  -13.5251    1.0000 </r>
       <r>   -2.4603    1.0000 </r>
       <r>   -2.2969    1.0000 </r>
       <r>   -1.8531    1.0000 </r>
       <r>   -1.7095    1.0000 </r>
       <r>   -1.6657    1.0000 </r>
       <r>   -1.6415    1.0000 </r>
       <r>   -1.2575    1.0000 </r>
       <r>   -1.1602    1.0000 </r>
       <r>   -1.0645    1.0000 </r>
       <r>   -0.8683    1.0000 </r>
       <r>   -0.6886    1.0000 </r>
       <r>   -0.4053    1.0000 </r>
       <r>   -0.2190    1.0000 </r>
       <r>    0.0813    1.0000 </r>
       <r>    0.1288    1.0000 </r>
       <r>    0.4433    1.0000 </r>
       <r>    0.7296    1.0000 </r>
       <r>    0.7535    1.0000 </r>
       <r>    0.9161    1.0000 </r>
       <r>    1.1896    1.0000 </r>
       <r>    1.3251    1.0000 </r>
       <r>    1.3527    1.0000 </r>
       <r>    1.5945    1.0000 </r>
       <r>    2.0556    1.0000 </r>
       <r>    2.2978    1.0000 </r>
       <r>    2.3415    1.0000 </r>
       <r>    2.5013    1.0000 </r>
       <r>    2.5574    1.0000 </r>
       <r>    3.6294    1.0000 </r>
       <r>    3.7658    1.0000 </r>
       <r>    4.6360    0.0000 </r>
       <r>    4.8380    0.0000 </r>
       <r>    5.3447    0.0000 </r>
       <r>    5.4647    0.0000 </r>
       <r>    5.5230    0.0000 </r>
       <r>    5.5267    0.0000 </r>
       <r>    6.0153    0.0000 </r>
       <r>    6.0254    0.0000 </r>
       <r>    6.4977    0.0000 </r>
       <r>    6.6301    0.0000 </r>
      </set>
      <set comment="kpoint 6">
       <r>  -46.6119    1.0000 </r>
       <r>  -46.6118    1.0000 </r>
       <r>  -46.4582    1.0000 </r>
       <r>  -46.4581    1.0000 </r>
       <r>  -46.4130    1.0000 </r>
       <r>  -46.4130    1.0000 </r>
       <r>  -43.6713    1.0000 </r>
       <r>  -43.6712    1.0000 </r>
       <r>  -43.4876    1.0000 </r>
       <r>  -43.4876    1.0000 </r>
       <r>  -43.3684    1.0000 </r>
       <r>  -43.3684    1.0000 </r>
       <r>  -14.1173    1.0000 </r>
       <r>  -14.1170    1.0000 </r>
       <r>  -14.0414    1.0000 </r>
       <r>  -14.0413    1.0000 </r>
       <r>  -13.8023    1.0000 </r>
       <r>  -13.8015    1.0000 </r>
       <r>  -13.5930    1.0000 </r>
       <r>  -13.5921    1.0000 </r>
       <r>   -2.5717    1.0000 </r>
       <r>   -2.5715    1.0000 </r>
       <r>   -1.8133    1.0000 </r>
       <r>   -1.8132    1.0000 </r>
       <r>   -1.5637    1.0000 </r>
       <r>   -1.5636    1.0000 </r>
       <r>   -1.1325    1.0000 </r>
       <r>   -1.1324    1.0000 </r>
       <r>   -0.8966    1.0000 </r>
       <r>   -0.8962    1.0000 </r>
       <r>   -0.6334    1.0000 </r>
       <r>   -0.6333    1.0000 </r>
       <r>    0.0406    1.0000 </r>
       <r>    0.0408    1.0000 </r>
       <r>    0.4035    1.0000 </r>
       <r>    0.4039    1.0000 </r>
       <r>    0.6318    1.0000 </r>
       <r>    0.6327    1.0000 </r>
       <r>    1.0564    1.0000 </r>
       <r>    1.0568    1.0000 </r>
       <r>    1.3817    1.0000 </r>
       <r>    1.3817    1.0000 </r>
       <r>    1.7332    1.0000 </r>
       <r>    1.7342    1.0000 </r>
       <r>    2.1096    1.0000 </r>
       <r>    2.1097    1.0000 </r>
       <r>    2.4101    1.0000 </r>
       <r>    2.4103    1.0000 </r>
       <r>    3.7367    1.0000 </r>
       <r>    3.7367    1.0000 </r>
       <r>    4.6660    0.0000 </r>
       <r>    4.6663    0.0000 </r>
       <r>    5.3696    0.0000 </r>
       <r>    5.3698    0.0000 </r>
       <r>    5.5221    0.0000 </r>
       <r>    5.5224    0.0000 </r>
       <r>    6.0284    0.0000 </r>
       <r>    6.0285    0.0000 </r>
       <r>    6.6136    0.0000 </r>
       <r>    6.6138    0.0000 </r>
      </set>
      <set comment="kpoint 7">
       <r>  -46.5100    1.0000 </r>
       <r>  -46.5071    1.0000 </r>
       <r>  -46.4760    1.0000 </r>
       <r>  -46.4675    1.0000 </r>
       <r>  -46.4288    1.0000 </r>
       <r>  -46.4186    1.0000 </r>
       <r>  -43.5513    1.0000 </r>
       <r>  -43.5477    1.0000 </r>
       <r>  -43.5096    1.0000 </r>
       <r>  -43.4984    1.0000 </r>
       <r>  -43.3886    1.0000 </r>
       <r>  -43.3751    1.0000 </r>
       <r>  -15.5561    1.0000 </r>
       <r>  -15.0444    1.0000 </r>
       <r>  -14.6250    1.0000 </r>
       <r>  -13.9606    1.0000 </r>
       <r>  -13.6684    1.0000 </r>
       <r>  -13.6225    1.0000 </r>
       <r>  -13.5336    1.0000 </r>
       <r>  -13.4579    1.0000 </r>
       <r>   -3.0478    1.0000 </r>
       <r>   -2.5024    1.0000 </r>
       <r>   -2.2121    1.0000 </r>
       <r>   -1.7995    1.0000 </r>
       <r>   -1.6963    1.0000 </r>
       <r>   -1.4679    1.0000 </r>
       <r>   -1.4399    1.0000 </r>
       <r>   -1.3155    1.0000 </r>
       <r>   -0.8415    1.0000 </r>
       <r>   -0.7590    1.0000 </r>
       <r>   -0.7089    1.0000 </r>
       <r>   -0.2631    1.0000 </r>
       <r>   -0.0916    1.0000 </r>
       <r>    0.5947    1.0000 </r>
       <r>    0.6328    1.0000 </r>
       <r>    0.8161    1.0000 </r>
       <r>    0.9186    1.0000 </r>
       <r>    1.2758    1.0000 </r>
       <r>    1.3933    1.0000 </r>
       <r>    1.8188    1.0000 </r>
       <r>    1.9403    1.0000 </r>
       <r>    2.2952    1.0000 </r>
       <r>    2.2987    1.0000 </r>
       <r>    2.4313    1.0000 </r>
       <r>    2.6040    1.0000 </r>
       <r>    2.6363    1.0000 </r>
       <r>    2.6524    1.0000 </r>
       <r>    2.9461    1.0000 </r>
       <r>    3.2073    1.0000 </r>
       <r>    3.8274    1.0000 </r>
       <r>    4.8220    0.0000 </r>
       <r>    5.0217    0.0000 </r>
       <r>    5.0465    0.0000 </r>
       <r>    5.2152    0.0000 </r>
       <r>    5.2158    0.0000 </r>
       <r>    5.4921    0.0000 </r>
       <r>    6.4954    0.0000 </r>
       <r>    6.6346    0.0000 </r>
       <r>    6.6512    0.0000 </r>
       <r>    6.6911    0.0000 </r>
      </set>
      <set comment="kpoint 8">
       <r>  -46.5199    1.0000 </r>
       <r>  -46.5171    1.0000 </r>
       <r>  -46.4745    1.0000 </r>
       <r>  -46.4663    1.0000 </r>
       <r>  -46.4276    1.0000 </r>
       <r>  -46.4178    1.0000 </r>
       <r>  -43.5630    1.0000 </r>
       <r>  -43.5595    1.0000 </r>
       <r>  -43.5078    1.0000 </r>
       <r>  -43.4970    1.0000 </r>
       <r>  -43.3870    1.0000 </r>
       <r>  -43.3742    1.0000 </r>
       <r>  -15.4645    1.0000 </r>
       <r>  -14.9737    1.0000 </r>
       <r>  -14.5565    1.0000 </r>
       <r>  -13.9286    1.0000 </r>
       <r>  -13.6771    1.0000 </r>
       <r>  -13.6339    1.0000 </r>
       <r>  -13.5544    1.0000 </r>
       <r>  -13.4684    1.0000 </r>
       <r>   -2.9189    1.0000 </r>
       <r>   -2.4053    1.0000 </r>
       <r>   -2.1304    1.0000 </r>
       <r>   -1.7479    1.0000 </r>
       <r>   -1.6608    1.0000 </r>
       <r>   -1.6153    1.0000 </r>
       <r>   -1.4862    1.0000 </r>
       <r>   -1.3192    1.0000 </r>
       <r>   -0.9600    1.0000 </r>
       <r>   -0.7707    1.0000 </r>
       <r>   -0.5175    1.0000 </r>
       <r>   -0.1930    1.0000 </r>
       <r>    0.0636    1.0000 </r>
       <r>    0.3295    1.0000 </r>
       <r>    0.4381    1.0000 </r>
       <r>    0.7460    1.0000 </r>
       <r>    0.7605    1.0000 </r>
       <r>    1.0981    1.0000 </r>
       <r>    1.5077    1.0000 </r>
       <r>    1.5861    1.0000 </r>
       <r>    1.8940    1.0000 </r>
       <r>    1.8981    1.0000 </r>
       <r>    2.1878    1.0000 </r>
       <r>    2.5179    1.0000 </r>
       <r>    2.5412    1.0000 </r>
       <r>    2.6627    1.0000 </r>
       <r>    2.8767    1.0000 </r>
       <r>    2.9693    1.0000 </r>
       <r>    3.2921    1.0000 </r>
       <r>    3.8058    1.0000 </r>
       <r>    4.8785    0.0000 </r>
       <r>    5.0246    0.0000 </r>
       <r>    5.2057    0.0000 </r>
       <r>    5.3012    0.0000 </r>
       <r>    5.3324    0.0000 </r>
       <r>    5.5098    0.0000 </r>
       <r>    6.3580    0.0000 </r>
       <r>    6.3986    0.0000 </r>
       <r>    6.4578    0.0000 </r>
       <r>    6.7549    0.0000 </r>
      </set>
      <set comment="kpoint 9">
       <r>  -46.5456    1.0000 </r>
       <r>  -46.5432    1.0000 </r>
       <r>  -46.4705    1.0000 </r>
       <r>  -46.4634    1.0000 </r>
       <r>  -46.4243    1.0000 </r>
       <r>  -46.4159    1.0000 </r>
       <r>  -43.5933    1.0000 </r>
       <r>  -43.5904    1.0000 </r>
       <r>  -43.5029    1.0000 </r>
       <r>  -43.4936    1.0000 </r>
       <r>  -43.3828    1.0000 </r>
       <r>  -43.3718    1.0000 </r>
       <r>  -15.2083    1.0000 </r>
       <r>  -14.7804    1.0000 </r>
       <r>  -14.3718    1.0000 </r>
       <r>  -13.8578    1.0000 </r>
       <r>  -13.7031    1.0000 </r>
       <r>  -13.6681    1.0000 </r>
       <r>  -13.6095    1.0000 </r>
       <r>  -13.4917    1.0000 </r>
       <r>   -2.5681    1.0000 </r>
       <r>   -2.1733    1.0000 </r>
       <r>   -1.9538    1.0000 </r>
       <r>   -1.8303    1.0000 </r>
       <r>   -1.6482    1.0000 </r>
       <r>   -1.6472    1.0000 </r>
       <r>   -1.4469    1.0000 </r>
       <r>   -1.3755    1.0000 </r>
       <r>   -1.0005    1.0000 </r>
       <r>   -0.7169    1.0000 </r>
       <r>   -0.4563    1.0000 </r>
       <r>   -0.4107    1.0000 </r>
       <r>   -0.2218    1.0000 </r>
       <r>    0.1073    1.0000 </r>
       <r>    0.3025    1.0000 </r>
       <r>    0.5245    1.0000 </r>
       <r>    0.8172    1.0000 </r>
       <r>    0.9540    1.0000 </r>
       <r>    1.0739    1.0000 </r>
       <r>    1.3499    1.0000 </r>
       <r>    1.5194    1.0000 </r>
       <r>    1.6838    1.0000 </r>
       <r>    2.1886    1.0000 </r>
       <r>    2.4537    1.0000 </r>
       <r>    2.6221    1.0000 </r>
       <r>    2.6303    1.0000 </r>
       <r>    2.9130    1.0000 </r>
       <r>    2.9995    1.0000 </r>
       <r>    3.3800    1.0000 </r>
       <r>    3.7578    1.0000 </r>
       <r>    5.0002    0.0000 </r>
       <r>    5.0994    0.0000 </r>
       <r>    5.2832    0.0000 </r>
       <r>    5.4168    0.0000 </r>
       <r>    5.4513    0.0000 </r>
       <r>    5.6600    0.0000 </r>
       <r>    5.9276    0.0000 </r>
       <r>    6.1224    0.0000 </r>
       <r>    6.3319    0.0000 </r>
       <r>    6.7215    0.0000 </r>
      </set>
      <set comment="kpoint 10">
       <r>  -46.5772    1.0000 </r>
       <r>  -46.5754    1.0000 </r>
       <r>  -46.4654    1.0000 </r>
       <r>  -46.4601    1.0000 </r>
       <r>  -46.4199    1.0000 </r>
       <r>  -46.4137    1.0000 </r>
       <r>  -43.6305    1.0000 </r>
       <r>  -43.6284    1.0000 </r>
       <r>  -43.4966    1.0000 </r>
       <r>  -43.4898    1.0000 </r>
       <r>  -43.3771    1.0000 </r>
       <r>  -43.3691    1.0000 </r>
       <r>  -14.8400    1.0000 </r>
       <r>  -14.5180    1.0000 </r>
       <r>  -14.1306    1.0000 </r>
       <r>  -13.8185    1.0000 </r>
       <r>  -13.7629    1.0000 </r>
       <r>  -13.7181    1.0000 </r>
       <r>  -13.6606    1.0000 </r>
       <r>  -13.5114    1.0000 </r>
       <r>   -2.1631    1.0000 </r>
       <r>   -2.1387    1.0000 </r>
       <r>   -1.8568    1.0000 </r>
       <r>   -1.8013    1.0000 </r>
       <r>   -1.7562    1.0000 </r>
       <r>   -1.6967    1.0000 </r>
       <r>   -1.4708    1.0000 </r>
       <r>   -1.3386    1.0000 </r>
       <r>   -0.9487    1.0000 </r>
       <r>   -0.9184    1.0000 </r>
       <r>   -0.6714    1.0000 </r>
       <r>   -0.4787    1.0000 </r>
       <r>   -0.2134    1.0000 </r>
       <r>   -0.0447    1.0000 </r>
       <r>    0.2554    1.0000 </r>
       <r>    0.5356    1.0000 </r>
       <r>    0.6689    1.0000 </r>
       <r>    0.6868    1.0000 </r>
       <r>    0.9810    1.0000 </r>
       <r>    1.1954    1.0000 </r>
       <r>    1.3309    1.0000 </r>
       <r>    1.7148    1.0000 </r>
       <r>    1.8860    1.0000 </r>
       <r>    2.2891    1.0000 </r>
       <r>    2.4595    1.0000 </r>
       <r>    2.6133    1.0000 </r>
       <r>    2.8086    1.0000 </r>
       <r>    2.8573    1.0000 </r>
       <r>    3.4499    1.0000 </r>
       <r>    3.7252    1.0000 </r>
       <r>    4.8363    0.0000 </r>
       <r>    5.0516    0.0000 </r>
       <r>    5.3896    0.0000 </r>
       <r>    5.4298    0.0000 </r>
       <r>    5.5229    0.0000 </r>
       <r>    5.5278    0.0000 </r>
       <r>    5.9291    0.0000 </r>
       <r>    6.0515    0.0000 </r>
       <r>    6.3274    0.0000 </r>
       <r>    6.6733    0.0000 </r>
      </set>
      <set comment="kpoint 11">
       <r>  -46.6025    1.0000 </r>
       <r>  -46.6016    1.0000 </r>
       <r>  -46.4608    1.0000 </r>
       <r>  -46.4580    1.0000 </r>
       <r>  -46.4157    1.0000 </r>
       <r>  -46.4124    1.0000 </r>
       <r>  -43.6602    1.0000 </r>
       <r>  -43.6591    1.0000 </r>
       <r>  -43.4910    1.0000 </r>
       <r>  -43.4874    1.0000 </r>
       <r>  -43.3718    1.0000 </r>
       <r>  -43.3676    1.0000 </r>
       <r>  -14.4425    1.0000 </r>
       <r>  -14.2558    1.0000 </r>
       <r>  -13.9281    1.0000 </r>
       <r>  -13.8982    1.0000 </r>
       <r>  -13.8701    1.0000 </r>
       <r>  -13.7543    1.0000 </r>
       <r>  -13.6557    1.0000 </r>
       <r>  -13.5372    1.0000 </r>
       <r>   -2.4773    1.0000 </r>
       <r>   -2.3243    1.0000 </r>
       <r>   -1.8590    1.0000 </r>
       <r>   -1.7597    1.0000 </r>
       <r>   -1.7438    1.0000 </r>
       <r>   -1.6438    1.0000 </r>
       <r>   -1.3053    1.0000 </r>
       <r>   -1.1758    1.0000 </r>
       <r>   -1.0198    1.0000 </r>
       <r>   -0.9965    1.0000 </r>
       <r>   -0.6038    1.0000 </r>
       <r>   -0.4656    1.0000 </r>
       <r>   -0.0965    1.0000 </r>
       <r>    0.1091    1.0000 </r>
       <r>    0.1817    1.0000 </r>
       <r>    0.4312    1.0000 </r>
       <r>    0.6349    1.0000 </r>
       <r>    0.7884    1.0000 </r>
       <r>    0.8509    1.0000 </r>
       <r>    1.1895    1.0000 </r>
       <r>    1.4374    1.0000 </r>
       <r>    1.4863    1.0000 </r>
       <r>    1.6643    1.0000 </r>
       <r>    2.0951    1.0000 </r>
       <r>    2.3147    1.0000 </r>
       <r>    2.3530    1.0000 </r>
       <r>    2.5288    1.0000 </r>
       <r>    2.5485    1.0000 </r>
       <r>    3.5983    1.0000 </r>
       <r>    3.7216    1.0000 </r>
       <r>    4.6631    0.0000 </r>
       <r>    4.8495    0.0000 </r>
       <r>    5.3556    0.0000 </r>
       <r>    5.4420    0.0000 </r>
       <r>    5.5220    0.0000 </r>
       <r>    5.5418    0.0000 </r>
       <r>    5.9697    0.0000 </r>
       <r>    6.0136    0.0000 </r>
       <r>    6.5054    0.0000 </r>
       <r>    6.6615    0.0000 </r>
      </set>
      <set comment="kpoint 12">
       <r>  -46.6119    1.0000 </r>
       <r>  -46.6118    1.0000 </r>
       <r>  -46.4582    1.0000 </r>
       <r>  -46.4581    1.0000 </r>
       <r>  -46.4130    1.0000 </r>
       <r>  -46.4130    1.0000 </r>
       <r>  -43.6713    1.0000 </r>
       <r>  -43.6712    1.0000 </r>
       <r>  -43.4876    1.0000 </r>
       <r>  -43.4876    1.0000 </r>
       <r>  -43.3684    1.0000 </r>
       <r>  -43.3684    1.0000 </r>
       <r>  -14.1099    1.0000 </r>
       <r>  -14.1096    1.0000 </r>
       <r>  -14.0415    1.0000 </r>
       <r>  -14.0414    1.0000 </r>
       <r>  -13.8035    1.0000 </r>
       <r>  -13.8027    1.0000 </r>
       <r>  -13.5954    1.0000 </r>
       <r>  -13.5945    1.0000 </r>
       <r>   -2.5836    1.0000 </r>
       <r>   -2.5833    1.0000 </r>
       <r>   -1.8320    1.0000 </r>
       <r>   -1.8319    1.0000 </r>
       <r>   -1.6328    1.0000 </r>
       <r>   -1.6326    1.0000 </r>
       <r>   -1.1700    1.0000 </r>
       <r>   -1.1700    1.0000 </r>
       <r>   -0.9578    1.0000 </r>
       <r>   -0.9574    1.0000 </r>
       <r>   -0.5722    1.0000 </r>
       <r>   -0.5721    1.0000 </r>
       <r>    0.0626    1.0000 </r>
       <r>    0.0627    1.0000 </r>
       <r>    0.3592    1.0000 </r>
       <r>    0.3594    1.0000 </r>
       <r>    0.6846    1.0000 </r>
       <r>    0.6853    1.0000 </r>
       <r>    1.0317    1.0000 </r>
       <r>    1.0320    1.0000 </r>
       <r>    1.4779    1.0000 </r>
       <r>    1.4779    1.0000 </r>
       <r>    1.8544    1.0000 </r>
       <r>    1.8553    1.0000 </r>
       <r>    2.1109    1.0000 </r>
       <r>    2.1110    1.0000 </r>
       <r>    2.4129    1.0000 </r>
       <r>    2.4130    1.0000 </r>
       <r>    3.6985    1.0000 </r>
       <r>    3.6985    1.0000 </r>
       <r>    4.6870    0.0000 </r>
       <r>    4.6872    0.0000 </r>
       <r>    5.3731    0.0000 </r>
       <r>    5.3732    0.0000 </r>
       <r>    5.5143    0.0000 </r>
       <r>    5.5147    0.0000 </r>
       <r>    6.0102    0.0000 </r>
       <r>    6.0103    0.0000 </r>
       <r>    6.6315    0.0000 </r>
       <r>    6.6317    0.0000 </r>
      </set>
      <set comment="kpoint 13">
       <r>  -46.6025    1.0000 </r>
       <r>  -46.6016    1.0000 </r>
       <r>  -46.4608    1.0000 </r>
       <r>  -46.4580    1.0000 </r>
       <r>  -46.4157    1.0000 </r>
       <r>  -46.4124    1.0000 </r>
       <r>  -43.6602    1.0000 </r>
       <r>  -43.6591    1.0000 </r>
       <r>  -43.4910    1.0000 </r>
       <r>  -43.4874    1.0000 </r>
       <r>  -43.3718    1.0000 </r>
       <r>  -43.3676    1.0000 </r>
       <r>  -14.4425    1.0000 </r>
       <r>  -14.2558    1.0000 </r>
       <r>  -13.9281    1.0000 </r>
       <r>  -13.8982    1.0000 </r>
       <r>  -13.8701    1.0000 </r>
       <r>  -13.7543    1.0000 </r>
       <r>  -13.6557    1.0000 </r>
       <r>  -13.5372    1.0000 </r>
       <r>   -2.4773    1.0000 </r>
       <r>   -2.3243    1.0000 </r>
       <r>   -1.8590    1.0000 </r>
       <r>   -1.7597    1.0000 </r>
       <r>   -1.7438    1.0000 </r>
       <r>   -1.6438    1.0000 </r>
       <r>   -1.3053    1.0000 </r>
       <r>   -1.1758    1.0000 </r>
       <r>   -1.0198    1.0000 </r>
       <r>   -0.9965    1.0000 </r>
       <r>   -0.6038    1.0000 </r>
       <r>   -0.4656    1.0000 </r>
       <r>   -0.0965    1.0000 </r>
       <r>    0.1091    1.0000 </r>
       <r>    0.1817    1.0000 </r>
       <r>    0.4312    1.0000 </r>
       <r>    0.6349    1.0000 </r>
       <r>    0.7884    1.0000 </r>
       <r>    0.8509    1.0000 </r>
       <r>    1.1895    1.0000 </r>
       <r>    1.4374    1.0000 </r>
       <r>    1.4863    1.0000 </r>
       <r>    1.6643    1.0000 </r>
       <r>    2.0951    1.0000 </r>
       <r>    2.3147    1.0000 </r>
       <r>    2.3530    1.0000 </r>
       <r>    2.5288    1.0000 </r>
       <r>    2.5485    1.0000 </r>
       <r>    3.5983    1.0000 </r>
       <r>    3.7216    1.0000 </r>
       <r>    4.6631    0.0000 </r>
       <r>    4.8496    0.0000 </r>
       <r>    5.3556    0.0000 </r>
       <r>    5.4420    0.0000 </r>
       <r>    5.5220    0.0000 </r>
       <r>    5.5418    0.0000 </r>
       <r>    5.9697    0.0000 </r>
       <r>    6.0136    0.0000 </r>
       <r>    6.5054    0.0000 </r>
       <r>    6.6615    0.0000 </r>
      </set>
      <set comment="kpoint 14">
       <r>  -46.5772    1.0000 </r>
       <r>  -46.5754    1.0000 </r>
       <r>  -46.4654    1.0000 </r>
       <r>  -46.4601    1.0000 </r>
       <r>  -46.4199    1.0000 </r>
       <r>  -46.4137    1.0000 </r>
       <r>  -43.6305    1.0000 </r>
       <r>  -43.6284    1.0000 </r>
       <r>  -43.4966    1.0000 </r>
       <r>  -43.4898    1.0000 </r>
       <r>  -43.3771    1.0000 </r>
       <r>  -43.3691    1.0000 </r>
       <r>  -14.8400    1.0000 </r>
       <r>  -14.5180    1.0000 </r>
       <r>  -14.1307    1.0000 </r>
       <r>  -13.8185    1.0000 </r>
       <r>  -13.7629    1.0000 </r>
       <r>  -13.7181    1.0000 </r>
       <r>  -13.6606    1.0000 </r>
       <r>  -13.5114    1.0000 </r>
       <r>   -2.1631    1.0000 </r>
       <r>   -2.1387    1.0000 </r>
       <r>   -1.8568    1.0000 </r>
       <r>   -1.8013    1.0000 </r>
       <r>   -1.7562    1.0000 </r>
       <r>   -1.6967    1.0000 </r>
       <r>   -1.4708    1.0000 </r>
       <r>   -1.3386    1.0000 </r>
       <r>   -0.9487    1.0000 </r>
       <r>   -0.9184    1.0000 </r>
       <r>   -0.6714    1.0000 </r>
       <r>   -0.4787    1.0000 </r>
       <r>   -0.2133    1.0000 </r>
       <r>   -0.0447    1.0000 </r>
       <r>    0.2554    1.0000 </r>
       <r>    0.5356    1.0000 </r>
       <r>    0.6689    1.0000 </r>
       <r>    0.6868    1.0000 </r>
       <r>    0.9810    1.0000 </r>
       <r>    1.1954    1.0000 </r>
       <r>    1.3309    1.0000 </r>
       <r>    1.7149    1.0000 </r>
       <r>    1.8860    1.0000 </r>
       <r>    2.2891    1.0000 </r>
       <r>    2.4595    1.0000 </r>
       <r>    2.6133    1.0000 </r>
       <r>    2.8086    1.0000 </r>
       <r>    2.8573    1.0000 </r>
       <r>    3.4499    1.0000 </r>
       <r>    3.7252    1.0000 </r>
       <r>    4.8363    0.0000 </r>
       <r>    5.0516    0.0000 </r>
       <r>    5.3896    0.0000 </r>
       <r>    5.4298    0.0000 </r>
       <r>    5.5229    0.0000 </r>
       <r>    5.5278    0.0000 </r>
       <r>    5.9291    0.0000 </r>
       <r>    6.0515    0.0000 </r>
       <r>    6.3274    0.0000 </r>
       <r>    6.6734    0.0000 </r>
      </set>
      <set comment="kpoint 15">
       <r>  -46.5456    1.0000 </r>
       <r>  -46.5432    1.0000 </r>
       <r>  -46.4705    1.0000 </r>
       <r>  -46.4634    1.0000 </r>
       <r>  -46.4243    1.0000 </r>
       <r>  -46.4159    1.0000 </r>
       <r>  -43.5933    1.0000 </r>
       <r>  -43.5904    1.0000 </r>
       <r>  -43.5029    1.0000 </r>
       <r>  -43.4936    1.0000 </r>
       <r>  -43.3828    1.0000 </r>
       <r>  -43.3718    1.0000 </r>
       <r>  -15.2083    1.0000 </r>
       <r>  -14.7804    1.0000 </r>
       <r>  -14.3718    1.0000 </r>
       <r>  -13.8578    1.0000 </r>
       <r>  -13.7031    1.0000 </r>
       <r>  -13.6681    1.0000 </r>
       <r>  -13.6095    1.0000 </r>
       <r>  -13.4917    1.0000 </r>
       <r>   -2.5681    1.0000 </r>
       <r>   -2.1733    1.0000 </r>
       <r>   -1.9538    1.0000 </r>
       <r>   -1.8303    1.0000 </r>
       <r>   -1.6482    1.0000 </r>
       <r>   -1.6472    1.0000 </r>
       <r>   -1.4469    1.0000 </r>
       <r>   -1.3755    1.0000 </r>
       <r>   -1.0005    1.0000 </r>
       <r>   -0.7169    1.0000 </r>
       <r>   -0.4563    1.0000 </r>
       <r>   -0.4107    1.0000 </r>
       <r>   -0.2218    1.0000 </r>
       <r>    0.1073    1.0000 </r>
       <r>    0.3025    1.0000 </r>
       <r>    0.5245    1.0000 </r>
       <r>    0.8172    1.0000 </r>
       <r>    0.9540    1.0000 </r>
       <r>    1.0739    1.0000 </r>
       <r>    1.3499    1.0000 </r>
       <r>    1.5194    1.0000 </r>
       <r>    1.6838    1.0000 </r>
       <r>    2.1886    1.0000 </r>
       <r>    2.4537    1.0000 </r>
       <r>    2.6221    1.0000 </r>
       <r>    2.6303    1.0000 </r>
       <r>    2.9130    1.0000 </r>
       <r>    2.9995    1.0000 </r>
       <r>    3.3800    1.0000 </r>
       <r>    3.7578    1.0000 </r>
       <r>    5.0002    0.0000 </r>
       <r>    5.0994    0.0000 </r>
       <r>    5.2832    0.0000 </r>
       <r>    5.4168    0.0000 </r>
       <r>    5.4513    0.0000 </r>
       <r>    5.6600    0.0000 </r>
       <r>    5.9276    0.0000 </r>
       <r>    6.1224    0.0000 </r>
       <r>    6.3319    0.0000 </r>
       <r>    6.7215    0.0000 </r>
      </set>
      <set comment="kpoint 16">
       <r>  -46.5199    1.0000 </r>
       <r>  -46.5171    1.0000 </r>
       <r>  -46.4745    1.0000 </r>
       <r>  -46.4663    1.0000 </r>
       <r>  -46.4276    1.0000 </r>
       <r>  -46.4178    1.0000 </r>
       <r>  -43.5630    1.0000 </r>
       <r>  -43.5595    1.0000 </r>
       <r>  -43.5078    1.0000 </r>
       <r>  -43.4970    1.0000 </r>
       <r>  -43.3870    1.0000 </r>
       <r>  -43.3742    1.0000 </r>
       <r>  -15.4645    1.0000 </r>
       <r>  -14.9737    1.0000 </r>
       <r>  -14.5565    1.0000 </r>
       <r>  -13.9286    1.0000 </r>
       <r>  -13.6771    1.0000 </r>
       <r>  -13.6339    1.0000 </r>
       <r>  -13.5544    1.0000 </r>
       <r>  -13.4684    1.0000 </r>
       <r>   -2.9189    1.0000 </r>
       <r>   -2.4053    1.0000 </r>
       <r>   -2.1304    1.0000 </r>
       <r>   -1.7479    1.0000 </r>
       <r>   -1.6608    1.0000 </r>
       <r>   -1.6153    1.0000 </r>
       <r>   -1.4862    1.0000 </r>
       <r>   -1.3193    1.0000 </r>
       <r>   -0.9600    1.0000 </r>
       <r>   -0.7707    1.0000 </r>
       <r>   -0.5175    1.0000 </r>
       <r>   -0.1930    1.0000 </r>
       <r>    0.0637    1.0000 </r>
       <r>    0.3295    1.0000 </r>
       <r>    0.4381    1.0000 </r>
       <r>    0.7460    1.0000 </r>
       <r>    0.7605    1.0000 </r>
       <r>    1.0981    1.0000 </r>
       <r>    1.5077    1.0000 </r>
       <r>    1.5862    1.0000 </r>
       <r>    1.8940    1.0000 </r>
       <r>    1.8981    1.0000 </r>
       <r>    2.1878    1.0000 </r>
       <r>    2.5179    1.0000 </r>
       <r>    2.5412    1.0000 </r>
       <r>    2.6627    1.0000 </r>
       <r>    2.8767    1.0000 </r>
       <r>    2.9693    1.0000 </r>
       <r>    3.2921    1.0000 </r>
       <r>    3.8058    1.0000 </r>
       <r>    4.8785    0.0000 </r>
       <r>    5.0246    0.0000 </r>
       <r>    5.2057    0.0000 </r>
       <r>    5.3012    0.0000 </r>
       <r>    5.3324    0.0000 </r>
       <r>    5.5098    0.0000 </r>
       <r>    6.3580    0.0000 </r>
       <r>    6.3986    0.0000 </r>
       <r>    6.4578    0.0000 </r>
       <r>    6.7549    0.0000 </r>
      </set>
      <set comment="kpoint 17">
       <r>  -46.5095    1.0000 </r>
       <r>  -46.5075    1.0000 </r>
       <r>  -46.4750    1.0000 </r>
       <r>  -46.4692    1.0000 </r>
       <r>  -46.4269    1.0000 </r>
       <r>  -46.4200    1.0000 </r>
       <r>  -43.5508    1.0000 </r>
       <r>  -43.5483    1.0000 </r>
       <r>  -43.5081    1.0000 </r>
       <r>  -43.5003    1.0000 </r>
       <r>  -43.3864    1.0000 </r>
       <r>  -43.3771    1.0000 </r>
       <r>  -15.4395    1.0000 </r>
       <r>  -15.0694    1.0000 </r>
       <r>  -14.5197    1.0000 </r>
       <r>  -14.0530    1.0000 </r>
       <r>  -13.6791    1.0000 </r>
       <r>  -13.6709    1.0000 </r>
       <r>  -13.5745    1.0000 </r>
       <r>  -13.5247    1.0000 </r>
       <r>   -2.9730    1.0000 </r>
       <r>   -2.5802    1.0000 </r>
       <r>   -2.0651    1.0000 </r>
       <r>   -1.9296    1.0000 </r>
       <r>   -1.6355    1.0000 </r>
       <r>   -1.4660    1.0000 </r>
       <r>   -1.4505    1.0000 </r>
       <r>   -1.2765    1.0000 </r>
       <r>   -0.8290    1.0000 </r>
       <r>   -0.7448    1.0000 </r>
       <r>   -0.6283    1.0000 </r>
       <r>   -0.2320    1.0000 </r>
       <r>    0.1398    1.0000 </r>
       <r>    0.6495    1.0000 </r>
       <r>    0.6997    1.0000 </r>
       <r>    0.7428    1.0000 </r>
       <r>    0.9852    1.0000 </r>
       <r>    1.4164    1.0000 </r>
       <r>    1.5061    1.0000 </r>
       <r>    1.6820    1.0000 </r>
       <r>    1.8136    1.0000 </r>
       <r>    2.1642    1.0000 </r>
       <r>    2.1841    1.0000 </r>
       <r>    2.3206    1.0000 </r>
       <r>    2.3450    1.0000 </r>
       <r>    2.5825    1.0000 </r>
       <r>    2.5989    1.0000 </r>
       <r>    2.8160    1.0000 </r>
       <r>    3.3064    1.0000 </r>
       <r>    3.7780    1.0000 </r>
       <r>    4.8371    0.0000 </r>
       <r>    4.9594    0.0000 </r>
       <r>    5.0492    0.0000 </r>
       <r>    5.1824    0.0000 </r>
       <r>    5.3764    0.0000 </r>
       <r>    5.7063    0.0000 </r>
       <r>    6.4299    0.0000 </r>
       <r>    6.4607    0.0000 </r>
       <r>    6.6253    0.0000 </r>
       <r>    6.6582    0.0000 </r>
      </set>
      <set comment="kpoint 18">
       <r>  -46.5194    1.0000 </r>
       <r>  -46.5175    1.0000 </r>
       <r>  -46.4735    1.0000 </r>
       <r>  -46.4679    1.0000 </r>
       <r>  -46.4258    1.0000 </r>
       <r>  -46.4191    1.0000 </r>
       <r>  -43.5624    1.0000 </r>
       <r>  -43.5600    1.0000 </r>
       <r>  -43.5063    1.0000 </r>
       <r>  -43.4989    1.0000 </r>
       <r>  -43.3849    1.0000 </r>
       <r>  -43.3760    1.0000 </r>
       <r>  -15.3515    1.0000 </r>
       <r>  -14.9961    1.0000 </r>
       <r>  -14.4554    1.0000 </r>
       <r>  -14.0132    1.0000 </r>
       <r>  -13.6900    1.0000 </r>
       <r>  -13.6825    1.0000 </r>
       <r>  -13.5898    1.0000 </r>
       <r>  -13.5342    1.0000 </r>
       <r>   -2.8515    1.0000 </r>
       <r>   -2.4849    1.0000 </r>
       <r>   -1.9979    1.0000 </r>
       <r>   -1.8798    1.0000 </r>
       <r>   -1.6706    1.0000 </r>
       <r>   -1.6337    1.0000 </r>
       <r>   -1.4877    1.0000 </r>
       <r>   -1.2890    1.0000 </r>
       <r>   -0.9037    1.0000 </r>
       <r>   -0.7452    1.0000 </r>
       <r>   -0.4304    1.0000 </r>
       <r>   -0.1297    1.0000 </r>
       <r>    0.2960    1.0000 </r>
       <r>    0.3068    1.0000 </r>
       <r>    0.4247    1.0000 </r>
       <r>    0.8572    1.0000 </r>
       <r>    0.9025    1.0000 </r>
       <r>    1.1890    1.0000 </r>
       <r>    1.4487    1.0000 </r>
       <r>    1.5613    1.0000 </r>
       <r>    1.7862    1.0000 </r>
       <r>    1.8720    1.0000 </r>
       <r>    2.0386    1.0000 </r>
       <r>    2.2393    1.0000 </r>
       <r>    2.4100    1.0000 </r>
       <r>    2.4986    1.0000 </r>
       <r>    2.8561    1.0000 </r>
       <r>    3.0315    1.0000 </r>
       <r>    3.3207    1.0000 </r>
       <r>    3.7460    1.0000 </r>
       <r>    4.8842    0.0000 </r>
       <r>    5.0061    0.0000 </r>
       <r>    5.1689    0.0000 </r>
       <r>    5.2973    0.0000 </r>
       <r>    5.4689    0.0000 </r>
       <r>    5.6891    0.0000 </r>
       <r>    6.2690    0.0000 </r>
       <r>    6.3533    0.0000 </r>
       <r>    6.4427    0.0000 </r>
       <r>    6.6243    0.0000 </r>
      </set>
      <set comment="kpoint 19">
       <r>  -46.5452    1.0000 </r>
       <r>  -46.5436    1.0000 </r>
       <r>  -46.4696    1.0000 </r>
       <r>  -46.4648    1.0000 </r>
       <r>  -46.4228    1.0000 </r>
       <r>  -46.4170    1.0000 </r>
       <r>  -43.5928    1.0000 </r>
       <r>  -43.5908    1.0000 </r>
       <r>  -43.5016    1.0000 </r>
       <r>  -43.4952    1.0000 </r>
       <r>  -43.3810    1.0000 </r>
       <r>  -43.3734    1.0000 </r>
       <r>  -15.1062    1.0000 </r>
       <r>  -14.7959    1.0000 </r>
       <r>  -14.2838    1.0000 </r>
       <r>  -13.9180    1.0000 </r>
       <r>  -13.7239    1.0000 </r>
       <r>  -13.7177    1.0000 </r>
       <r>  -13.6276    1.0000 </r>
       <r>  -13.5541    1.0000 </r>
       <r>   -2.5277    1.0000 </r>
       <r>   -2.2609    1.0000 </r>
       <r>   -1.9142    1.0000 </r>
       <r>   -1.8980    1.0000 </r>
       <r>   -1.7326    1.0000 </r>
       <r>   -1.6600    1.0000 </r>
       <r>   -1.5984    1.0000 </r>
       <r>   -1.3691    1.0000 </r>
       <r>   -0.8063    1.0000 </r>
       <r>   -0.6849    1.0000 </r>
       <r>   -0.3975    1.0000 </r>
       <r>   -0.2701    1.0000 </r>
       <r>   -0.1793    1.0000 </r>
       <r>    0.2164    1.0000 </r>
       <r>    0.3087    1.0000 </r>
       <r>    0.6719    1.0000 </r>
       <r>    0.7467    1.0000 </r>
       <r>    1.0047    1.0000 </r>
       <r>    1.1597    1.0000 </r>
       <r>    1.3956    1.0000 </r>
       <r>    1.4042    1.0000 </r>
       <r>    1.7306    1.0000 </r>
       <r>    2.0705    1.0000 </r>
       <r>    2.2736    1.0000 </r>
       <r>    2.4493    1.0000 </r>
       <r>    2.5938    1.0000 </r>
       <r>    3.0002    1.0000 </r>
       <r>    3.0277    1.0000 </r>
       <r>    3.3718    1.0000 </r>
       <r>    3.6690    1.0000 </r>
       <r>    4.9647    0.0000 </r>
       <r>    5.0590    0.0000 </r>
       <r>    5.3748    0.0000 </r>
       <r>    5.4080    0.0000 </r>
       <r>    5.5810    0.0000 </r>
       <r>    5.7236    0.0000 </r>
       <r>    5.8329    0.0000 </r>
       <r>    6.1328    0.0000 </r>
       <r>    6.2860    0.0000 </r>
       <r>    6.6300    0.0000 </r>
      </set>
      <set comment="kpoint 20">
       <r>  -46.5769    1.0000 </r>
       <r>  -46.5757    1.0000 </r>
       <r>  -46.4647    1.0000 </r>
       <r>  -46.4611    1.0000 </r>
       <r>  -46.4188    1.0000 </r>
       <r>  -46.4145    1.0000 </r>
       <r>  -43.6301    1.0000 </r>
       <r>  -43.6287    1.0000 </r>
       <r>  -43.4957    1.0000 </r>
       <r>  -43.4910    1.0000 </r>
       <r>  -43.3758    1.0000 </r>
[...]
       <r>    -5.2340     0.0000    20.0000 </r>
       <r>    -5.0382     0.0000    20.0000 </r>
       <r>    -4.8424     0.0000    20.0000 </r>
       <r>    -4.6467     0.0000    20.0000 </r>
       <r>    -4.4509     0.0000    20.0000 </r>
       <r>    -4.2551     0.0000    20.0000 </r>
       <r>    -4.0594     0.0000    20.0000 </r>
       <r>    -3.8636     0.0000    20.0000 </r>
       <r>    -3.6678     0.0000    20.0000 </r>
       <r>    -3.4721     0.0000    20.0000 </r>
       <r>    -3.2763     0.0000    20.0000 </r>
       <r>    -3.0805     0.0016    20.0003 </r>
       <r>    -2.8848     0.2554    20.0750 </r>
       <r>    -2.6890     0.5823    20.3283 </r>
       <r>    -2.4932     1.4629    20.8078 </r>
       <r>    -2.2975     0.7801    21.4170 </r>
       <r>    -2.1017     1.7446    22.2344 </r>
       <r>    -1.9059     2.9055    23.3152 </r>
       <r>    -1.7102     3.0918    24.6660 </r>
       <r>    -1.5144     1.7303    26.0244 </r>
       <r>    -1.3187     2.8603    27.4492 </r>
       <r>    -1.1229     0.8032    28.0287 </r>
       <r>    -0.9271     1.4342    28.6879 </r>
       <r>    -0.7314     2.1803    29.7625 </r>
       <r>    -0.5356     1.3890    30.4648 </r>
       <r>    -0.3398     2.0175    31.3985 </r>
       <r>    -0.1441     1.0015    32.1103 </r>
       <r>     0.0517     1.5254    32.7522 </r>
       <r>     0.2475     1.6010    33.6241 </r>
       <r>     0.4432     2.2008    34.9987 </r>
       <r>     0.6390     2.3819    36.0342 </r>
       <r>     0.8348     1.3522    37.1933 </r>
       <r>     1.0305     1.2961    37.9966 </r>
       <r>     1.2263     2.8470    39.1288 </r>
       <r>     1.4221     1.6641    39.7686 </r>
       <r>     1.6178     0.9148    40.4291 </r>
       <r>     1.8136     1.7976    41.3698 </r>
       <r>     2.0094     1.9452    42.3844 </r>
       <r>     2.2051     1.8941    43.3601 </r>
       <r>     2.4009     2.4747    44.5202 </r>
       <r>     2.5967     3.6560    46.2622 </r>
       <r>     2.7924     0.4361    46.7568 </r>
       <r>     2.9882     2.0836    47.6186 </r>
       <r>     3.1840     0.2189    48.0536 </r>
       <r>     3.3797     1.0187    48.3994 </r>
       <r>     3.5755     1.2198    49.0459 </r>
       <r>     3.7713     1.7329    49.7964 </r>
       <r>     3.9670     0.0000    50.0000 </r>
       <r>     4.1628     0.0000    50.0000 </r>
       <r>     4.3586     0.0000    50.0000 </r>
       <r>     4.5543     0.0000    50.0000 </r>
       <r>     4.7501     0.5948    50.1593 </r>
       <r>     4.9459     2.0153    50.9445 </r>
       <r>     5.1416     1.6817    52.1364 </r>
       <r>     5.3374     1.8772    53.2461 </r>
       <r>     5.5332     2.4200    54.9845 </r>
       <r>     5.7289     0.7830    55.7461 </r>
       <r>     5.9247     1.2827    56.2225 </r>
       <r>     6.1205     1.5896    57.1040 </r>
       <r>     6.3162     1.7419    57.8767 </r>
       <r>     6.5120     2.3197    58.8005 </r>
       <r>     6.7078     2.0720    59.9342 </r>
       <r>     6.9035     0.0000    60.0000 </r>
       <r>     7.0993     0.0000    60.0000 </r>
       <r>     7.2951     0.0000    60.0000 </r>
       <r>     7.4908     0.0000    60.0000 </r>
       <r>     7.6866     0.0000    60.0000 </r>
       <r>     7.8824     0.0000    60.0000 </r>
       <r>     8.0781     0.0000    60.0000 </r>
       <r>     8.2739     0.0000    60.0000 </r>
       <r>     8.4697     0.0000    60.0000 </r>
       <r>     8.6654     0.0000    60.0000 </r>
       <r>     8.8612     0.0000    60.0000 </r>
       <r>     9.0570     0.0000    60.0000 </r>
       <r>     9.2527     0.0000    60.0000 </r>
       <r>     9.4485     0.0000    60.0000 </r>
      </set>
      <set comment="spin 2">
       <r>   -49.2814     0.0000     0.0000 </r>
       <r>   -49.0856     0.0000     0.0000 </r>
       <r>   -48.8899     0.0000     0.0000 </r>
       <r>   -48.6941     0.0000     0.0000 </r>
       <r>   -48.4983     0.0000     0.0000 </r>
       <r>   -48.3026     0.0000     0.0000 </r>
       <r>   -48.1068     0.0000     0.0000 </r>
       <r>   -47.9110     0.0000     0.0000 </r>
       <r>   -47.7153     0.0000     0.0000 </r>
       <r>   -47.5195     0.0000     0.0000 </r>
       <r>   -47.3237     0.0000     0.0000 </r>
       <r>   -47.1280     0.0000     0.0000 </r>
       <r>   -46.9322     0.0000     0.0000 </r>
       <r>   -46.7364     0.0000     0.0000 </r>
       <r>   -46.5407     6.5329     1.2789 </r>
       <r>   -46.3449     9.1217     6.0000 </r>
       <r>   -46.1491     0.0000     6.0000 </r>
       <r>   -45.9534     0.0000     6.0000 </r>
       <r>   -45.7576     0.0000     6.0000 </r>
       <r>   -45.5618     0.0000     6.0000 </r>
       <r>   -45.3661     0.0000     6.0000 </r>
       <r>   -45.1703     0.0000     6.0000 </r>
       <r>   -44.9745     0.0000     6.0000 </r>
       <r>   -44.7788     0.0000     6.0000 </r>
       <r>   -44.5830     0.0000     6.0000 </r>
       <r>   -44.3872     0.0000     6.0000 </r>
       <r>   -44.1915     0.0000     6.0000 </r>
       <r>   -43.9957     0.0000     6.0000 </r>
       <r>   -43.7999     0.0000     6.0000 </r>
       <r>   -43.6042     5.1950     7.0170 </r>
       <r>   -43.4084     1.7531    10.0003 </r>
       <r>   -43.2126     0.0000    12.0000 </r>
       <r>   -43.0169     0.0000    12.0000 </r>
       <r>   -42.8211     0.0000    12.0000 </r>
       <r>   -42.6253     0.0000    12.0000 </r>
       <r>   -42.4296     0.0000    12.0000 </r>
       <r>   -42.2338     0.0000    12.0000 </r>
       <r>   -42.0380     0.0000    12.0000 </r>
       <r>   -41.8423     0.0000    12.0000 </r>
       <r>   -41.6465     0.0000    12.0000 </r>
       <r>   -41.4507     0.0000    12.0000 </r>
       <r>   -41.2550     0.0000    12.0000 </r>
       <r>   -41.0592     0.0000    12.0000 </r>
       <r>   -40.8634     0.0000    12.0000 </r>
       <r>   -40.6677     0.0000    12.0000 </r>
       <r>   -40.4719     0.0000    12.0000 </r>
       <r>   -40.2762     0.0000    12.0000 </r>
       <r>   -40.0804     0.0000    12.0000 </r>
       <r>   -39.8846     0.0000    12.0000 </r>
       <r>   -39.6889     0.0000    12.0000 </r>
       <r>   -39.4931     0.0000    12.0000 </r>
       <r>   -39.2973     0.0000    12.0000 </r>
       <r>   -39.1016     0.0000    12.0000 </r>
       <r>   -38.9058     0.0000    12.0000 </r>
       <r>   -38.7100     0.0000    12.0000 </r>
       <r>   -38.5143     0.0000    12.0000 </r>
       <r>   -38.3185     0.0000    12.0000 </r>
       <r>   -38.1227     0.0000    12.0000 </r>
       <r>   -37.9270     0.0000    12.0000 </r>
       <r>   -37.7312     0.0000    12.0000 </r>
       <r>   -37.5354     0.0000    12.0000 </r>
       <r>   -37.3397     0.0000    12.0000 </r>
       <r>   -37.1439     0.0000    12.0000 </r>
       <r>   -36.9481     0.0000    12.0000 </r>
       <r>   -36.7524     0.0000    12.0000 </r>
       <r>   -36.5566     0.0000    12.0000 </r>
       <r>   -36.3608     0.0000    12.0000 </r>
       <r>   -36.1651     0.0000    12.0000 </r>
       <r>   -35.9693     0.0000    12.0000 </r>
       <r>   -35.7735     0.0000    12.0000 </r>
       <r>   -35.5778     0.0000    12.0000 </r>
       <r>   -35.3820     0.0000    12.0000 </r>
       <r>   -35.1862     0.0000    12.0000 </r>
       <r>   -34.9905     0.0000    12.0000 </r>
       <r>   -34.7947     0.0000    12.0000 </r>
       <r>   -34.5989     0.0000    12.0000 </r>
       <r>   -34.4032     0.0000    12.0000 </r>
       <r>   -34.2074     0.0000    12.0000 </r>
       <r>   -34.0116     0.0000    12.0000 </r>
       <r>   -33.8159     0.0000    12.0000 </r>
       <r>   -33.6201     0.0000    12.0000 </r>
       <r>   -33.4243     0.0000    12.0000 </r>
       <r>   -33.2286     0.0000    12.0000 </r>
       <r>   -33.0328     0.0000    12.0000 </r>
       <r>   -32.8370     0.0000    12.0000 </r>
       <r>   -32.6413     0.0000    12.0000 </r>
       <r>   -32.4455     0.0000    12.0000 </r>
       <r>   -32.2497     0.0000    12.0000 </r>
       <r>   -32.0540     0.0000    12.0000 </r>
       <r>   -31.8582     0.0000    12.0000 </r>
       <r>   -31.6624     0.0000    12.0000 </r>
       <r>   -31.4667     0.0000    12.0000 </r>
       <r>   -31.2709     0.0000    12.0000 </r>
       <r>   -31.0751     0.0000    12.0000 </r>
       <r>   -30.8794     0.0000    12.0000 </r>
       <r>   -30.6836     0.0000    12.0000 </r>
       <r>   -30.4878     0.0000    12.0000 </r>
       <r>   -30.2921     0.0000    12.0000 </r>
       <r>   -30.0963     0.0000    12.0000 </r>
       <r>   -29.9005     0.0000    12.0000 </r>
       <r>   -29.7048     0.0000    12.0000 </r>
       <r>   -29.5090     0.0000    12.0000 </r>
       <r>   -29.3132     0.0000    12.0000 </r>
       <r>   -29.1175     0.0000    12.0000 </r>
       <r>   -28.9217     0.0000    12.0000 </r>
       <r>   -28.7259     0.0000    12.0000 </r>
       <r>   -28.5302     0.0000    12.0000 </r>
       <r>   -28.3344     0.0000    12.0000 </r>
       <r>   -28.1386     0.0000    12.0000 </r>
       <r>   -27.9429     0.0000    12.0000 </r>
       <r>   -27.7471     0.0000    12.0000 </r>
       <r>   -27.5513     0.0000    12.0000 </r>
       <r>   -27.3556     0.0000    12.0000 </r>
       <r>   -27.1598     0.0000    12.0000 </r>
       <r>   -26.9640     0.0000    12.0000 </r>
       <r>   -26.7683     0.0000    12.0000 </r>
       <r>   -26.5725     0.0000    12.0000 </r>
       <r>   -26.3767     0.0000    12.0000 </r>
       <r>   -26.1810     0.0000    12.0000 </r>
       <r>   -25.9852     0.0000    12.0000 </r>
       <r>   -25.7894     0.0000    12.0000 </r>
       <r>   -25.5937     0.0000    12.0000 </r>
       <r>   -25.3979     0.0000    12.0000 </r>
       <r>   -25.2021     0.0000    12.0000 </r>
       <r>   -25.0064     0.0000    12.0000 </r>
       <r>   -24.8106     0.0000    12.0000 </r>
       <r>   -24.6148     0.0000    12.0000 </r>
       <r>   -24.4191     0.0000    12.0000 </r>
       <r>   -24.2233     0.0000    12.0000 </r>
       <r>   -24.0275     0.0000    12.0000 </r>
       <r>   -23.8318     0.0000    12.0000 </r>
       <r>   -23.6360     0.0000    12.0000 </r>
       <r>   -23.4402     0.0000    12.0000 </r>
       <r>   -23.2445     0.0000    12.0000 </r>
       <r>   -23.0487     0.0000    12.0000 </r>
       <r>   -22.8529     0.0000    12.0000 </r>
       <r>   -22.6572     0.0000    12.0000 </r>
       <r>   -22.4614     0.0000    12.0000 </r>
       <r>   -22.2656     0.0000    12.0000 </r>
       <r>   -22.0699     0.0000    12.0000 </r>
       <r>   -21.8741     0.0000    12.0000 </r>
       <r>   -21.6783     0.0000    12.0000 </r>
       <r>   -21.4826     0.0000    12.0000 </r>
       <r>   -21.2868     0.0000    12.0000 </r>
       <r>   -21.0910     0.0000    12.0000 </r>
       <r>   -20.8953     0.0000    12.0000 </r>
       <r>   -20.6995     0.0000    12.0000 </r>
       <r>   -20.5038     0.0000    12.0000 </r>
       <r>   -20.3080     0.0000    12.0000 </r>
       <r>   -20.1122     0.0000    12.0000 </r>
       <r>   -19.9165     0.0000    12.0000 </r>
       <r>   -19.7207     0.0000    12.0000 </r>
       <r>   -19.5249     0.0000    12.0000 </r>
       <r>   -19.3292     0.0000    12.0000 </r>
       <r>   -19.1334     0.0000    12.0000 </r>
       <r>   -18.9376     0.0000    12.0000 </r>
       <r>   -18.7419     0.0000    12.0000 </r>
       <r>   -18.5461     0.0000    12.0000 </r>
       <r>   -18.3503     0.0000    12.0000 </r>
       <r>   -18.1546     0.0000    12.0000 </r>
       <r>   -17.9588     0.0000    12.0000 </r>
       <r>   -17.7630     0.0000    12.0000 </r>
       <r>   -17.5673     0.0000    12.0000 </r>
       <r>   -17.3715     0.0000    12.0000 </r>
       <r>   -17.1757     0.0000    12.0000 </r>
       <r>   -16.9800     0.0000    12.0000 </r>
       <r>   -16.7842     0.0000    12.0000 </r>
       <r>   -16.5884     0.0000    12.0000 </r>
       <r>   -16.3927     0.0000    12.0000 </r>
       <r>   -16.1969     0.0000    12.0000 </r>
       <r>   -16.0011     0.0000    12.0000 </r>
       <r>   -15.8054     0.0000    12.0000 </r>
       <r>   -15.6096     0.0012    12.0002 </r>
       <r>   -15.4138     0.3437    12.1066 </r>
       <r>   -15.2181     0.4143    12.2918 </r>
       <r>   -15.0223     0.8703    12.7025 </r>
       <r>   -14.8265     0.7616    12.9991 </r>
       <r>   -14.6308     0.4812    13.2228 </r>
       <r>   -14.4350     0.3634    13.5104 </r>
       <r>   -14.2392     1.8047    14.1354 </r>
       <r>   -14.0435     2.8727    14.9731 </r>
       <r>   -13.8477     3.7728    16.0743 </r>
       <r>   -13.6519     5.6822    18.1409 </r>
       <r>   -13.4562     2.1449    19.9413 </r>
       <r>   -13.2604     0.0000    20.0000 </r>
       <r>   -13.0646     0.0000    20.0000 </r>
       <r>   -12.8689     0.0000    20.0000 </r>
       <r>   -12.6731     0.0000    20.0000 </r>
       <r>   -12.4773     0.0000    20.0000 </r>
       <r>   -12.2816     0.0000    20.0000 </r>
       <r>   -12.0858     0.0000    20.0000 </r>
       <r>   -11.8900     0.0000    20.0000 </r>
       <r>   -11.6943     0.0000    20.0000 </r>
       <r>   -11.4985     0.0000    20.0000 </r>
       <r>   -11.3027     0.0000    20.0000 </r>
       <r>   -11.1070     0.0000    20.0000 </r>
       <r>   -10.9112     0.0000    20.0000 </r>
       <r>   -10.7154     0.0000    20.0000 </r>
       <r>   -10.5197     0.0000    20.0000 </r>
       <r>   -10.3239     0.0000    20.0000 </r>
       <r>   -10.1281     0.0000    20.0000 </r>
       <r>    -9.9324     0.0000    20.0000 </r>
       <r>    -9.7366     0.0000    20.0000 </r>
       <r>    -9.5408     0.0000    20.0000 </r>
       <r>    -9.3451     0.0000    20.0000 </r>
       <r>    -9.1493     0.0000    20.0000 </r>
       <r>    -8.9535     0.0000    20.0000 </r>
       <r>    -8.7578     0.0000    20.0000 </r>
       <r>    -8.5620     0.0000    20.0000 </r>
       <r>    -8.3662     0.0000    20.0000 </r>
       <r>    -8.1705     0.0000    20.0000 </r>
       <r>    -7.9747     0.0000    20.0000 </r>
       <r>    -7.7789     0.0000    20.0000 </r>
       <r>    -7.5832     0.0000    20.0000 </r>
       <r>    -7.3874     0.0000    20.0000 </r>
       <r>    -7.1916     0.0000    20.0000 </r>
       <r>    -6.9959     0.0000    20.0000 </r>
       <r>    -6.8001     0.0000    20.0000 </r>
       <r>    -6.6043     0.0000    20.0000 </r>
       <r>    -6.4086     0.0000    20.0000 </r>
       <r>    -6.2128     0.0000    20.0000 </r>
       <r>    -6.0170     0.0000    20.0000 </r>
       <r>    -5.8213     0.0000    20.0000 </r>
       <r>    -5.6255     0.0000    20.0000 </r>
       <r>    -5.4297     0.0000    20.0000 </r>
       <r>    -5.2340     0.0000    20.0000 </r>
       <r>    -5.0382     0.0000    20.0000 </r>
       <r>    -4.8424     0.0000    20.0000 </r>
       <r>    -4.6467     0.0000    20.0000 </r>
       <r>    -4.4509     0.0000    20.0000 </r>
       <r>    -4.2551     0.0000    20.0000 </r>
       <r>    -4.0594     0.0000    20.0000 </r>
       <r>    -3.8636     0.0000    20.0000 </r>
       <r>    -3.6678     0.0000    20.0000 </r>
       <r>    -3.4721     0.0000    20.0000 </r>
       <r>    -3.2763     0.0000    20.0000 </r>
       <r>    -3.0805     0.0016    20.0003 </r>
       <r>    -2.8848     0.2554    20.0750 </r>
       <r>    -2.6890     0.5823    20.3283 </r>
       <r>    -2.4932     1.4607    20.8074 </r>
       <r>    -2.2975     0.7800    21.4170 </r>
       <r>    -2.1017     1.7445    22.2344 </r>
       <r>    -1.9059     2.9054    23.3152 </r>
       <r>    -1.7102     3.0916    24.6659 </r>
       <r>    -1.5144     1.7311    26.0246 </r>
       <r>    -1.3187     2.8611    27.4494 </r>
       <r>    -1.1229     0.8033    28.0287 </r>
       <r>    -0.9271     1.4341    28.6879 </r>
       <r>    -0.7314     2.1804    29.7626 </r>
       <r>    -0.5356     1.3893    30.4648 </r>
       <r>    -0.3398     2.0176    31.3986 </r>
       <r>    -0.1441     1.0015    32.1103 </r>
       <r>     0.0517     1.5256    32.7522 </r>
       <r>     0.2475     1.6012    33.6242 </r>
       <r>     0.4432     2.2010    34.9987 </r>
       <r>     0.6390     2.3817    36.0341 </r>
       <r>     0.8348     1.3522    37.1933 </r>
       <r>     1.0305     1.2960    37.9966 </r>
       <r>     1.2263     2.8469    39.1288 </r>
       <r>     1.4221     1.6646    39.7687 </r>
       <r>     1.6178     0.9146    40.4290 </r>
       <r>     1.8136     1.7973    41.3697 </r>
       <r>     2.0094     1.9454    42.3844 </r>
       <r>     2.2051     1.8940    43.3601 </r>
       <r>     2.4009     2.4728    44.5198 </r>
       <r>     2.5967     3.6554    46.2620 </r>
       <r>     2.7924     0.4358    46.7568 </r>
       <r>     2.9882     2.0828    47.6185 </r>
       <r>     3.1840     0.2189    48.0536 </r>
       <r>     3.3797     1.0170    48.3991 </r>
       <r>     3.5755     1.2196    49.0459 </r>
       <r>     3.7713     1.7323    49.7963 </r>
       <r>     3.9670     0.0000    50.0000 </r>
       <r>     4.1628     0.0000    50.0000 </r>
       <r>     4.3586     0.0000    50.0000 </r>
       <r>     4.5543     0.0000    50.0000 </r>
       <r>     4.7501     0.5950    50.1593 </r>
       <r>     4.9459     2.0158    50.9446 </r>
       <r>     5.1416     1.6822    52.1365 </r>
       <r>     5.3374     1.8776    53.2461 </r>
       <r>     5.5332     2.4212    54.9847 </r>
       <r>     5.7289     0.7833    55.7462 </r>
       <r>     5.9247     1.2834    56.2227 </r>
       <r>     6.1205     1.5894    57.1040 </r>
       <r>     6.3162     1.7423    57.8768 </r>
       <r>     6.5120     2.3193    58.8005 </r>
       <r>     6.7078     2.0606    59.9320 </r>
       <r>     6.9035     0.0000    60.0000 </r>
       <r>     7.0993     0.0000    60.0000 </r>
       <r>     7.2951     0.0000    60.0000 </r>
       <r>     7.4908     0.0000    60.0000 </r>
       <r>     7.6866     0.0000    60.0000 </r>
       <r>     7.8824     0.0000    60.0000 </r>
       <r>     8.0781     0.0000    60.0000 </r>
       <r>     8.2739     0.0000    60.0000 </r>
       <r>     8.4697     0.0000    60.0000 </r>
       <r>     8.6654     0.0000    60.0000 </r>
       <r>     8.8612     0.0000    60.0000 </r>
       <r>     9.0570     0.0000    60.0000 </r>
       <r>     9.2527     0.0000    60.0000 </r>
       <r>     9.4485     0.0000    60.0000 </r>
      </set>
     </set>
    </array>
   </total>
  </dos>
 </calculation>
 <structure name="finalpos" >
  <crystal>
   <varray name="basis" >
    <v>       2.87398817      -0.00000383      -0.00000314 </v>
    <v>      -0.00000691       4.60267210       0.00001729 </v>
    <v>      -0.00000706       0.00003481       9.35828387 </v>
   </varray>
   <i name="volume">    123.79161466 </i>
   <varray name="rec_basis" >
    <v>       0.34794854       0.00000052       0.00000026 </v>
    <v>       0.00000029       0.21726510      -0.00000081 </v>
    <v>       0.00000012      -0.00000040       0.10685720 </v>
   </varray>
  </crystal>
  <varray name="positions" >
   <v>       0.24999997       0.01657458       0.86498272 </v>
   <v>       0.75000044       0.98347509       0.13502990 </v>
   <v>       0.75000396       0.51652950       0.63502687 </v>
   <v>       0.24999982       0.48342323       0.36498065 </v>
   <v>       0.25000110       0.70644893       0.53785004 </v>
   <v>       0.74999970       0.20650615       0.96215373 </v>
   <v>       0.24999897       0.79355036       0.03785363 </v>
   <v>       0.75000022       0.29348800       0.46215526 </v>
   <v>       0.24999840       0.19639349       0.21683188 </v>
   <v>       0.25000023       0.30361118       0.71683368 </v>
   <v>       0.74999983       0.69634440       0.28315235 </v>
   <v>       0.74999735       0.80365610       0.78315027 </v>
  </varray>
 </structure>
</modeling>
