unknown system                          
           1
     2.873988   -0.000004   -0.000003
    -0.000007    4.602672    0.000017
    -0.000007    0.000035    9.358284
   Mn   O 
   4   8
Direct configuration=     1
   0.24999997  0.01657458  0.86498272
   0.75000044  0.98347509  0.13502990
   0.75000396  0.51652950  0.63502687
   0.24999982  0.48342323  0.36498065
   0.25000110  0.70644893  0.53785004
   0.74999970  0.20650615  0.96215373
   0.24999897  0.79355036  0.03785363
   0.75000022  0.29348800  0.46215526
   0.24999840  0.19639349  0.21683188
   0.25000023  0.30361118  0.71683368
   0.74999983  0.69634440  0.28315235
   0.74999735  0.80365610  0.78315027
