  12  12   1   0
  0.1050332E+02  0.2916331E-09  0.4580966E-09  0.9434393E-09  0.5000000E-15
  1.000000000000000E-004
  CAR 
 unknown system                          
      9.94667178    -48.96949787  301      4.30053886      1.00000000
    -48.969  0.0000E+00  0.0000E+00  0.0000E+00  0.0000E+00
    -48.773  0.0000E+00  0.0000E+00  0.0000E+00  0.0000E+00
    -48.577  0.0000E+00  0.0000E+00  0.0000E+00  0.0000E+00
    -48.380  0.0000E+00  0.0000E+00  0.0000E+00  0.0000E+00
    -48.184  0.0000E+00  0.0000E+00  0.0000E+00  0.0000E+00
    -47.988  0.0000E+00  0.0000E+00  0.0000E+00  0.0000E+00
    -47.791  0.0000E+00  0.0000E+00  0.0000E+00  0.0000E+00
    -47.595  0.0000E+00  0.0000E+00  0.0000E+00  0.0000E+00
    -47.398  0.0000E+00  0.0000E+00  0.0000E+00  0.0000E+00
    -47.202  0.0000E+00  0.0000E+00  0.0000E+00  0.0000E+00
    -47.006  0.0000E+00  0.0000E+00  0.0000E+00  0.0000E+00
    -46.809  0.0000E+00  0.0000E+00  0.0000E+00  0.0000E+00
    -46.613  0.0000E+00  0.0000E+00  0.0000E+00  0.0000E+00
    -46.416  0.0000E+00  0.0000E+00  0.0000E+00  0.0000E+00
    -46.220  0.5118E-01  0.5118E-01  0.1005E-01  0.1005E-01
    -46.024  0.0000E+00  0.0000E+00  0.2010E-01  0.2010E-01
    -45.827  0.0000E+00  0.0000E+00  0.3015E-01  0.3015E-01
    -45.631  0.0000E+00  0.0000E+00  0.3015E-01  0.3015E-01
    -45.435  0.0000E+00  0.0000E+00  0.3015E-01  0.3015E-01
    -45.238  0.0000E+00  0.0000E+00  0.3015E-01  0.3015E-01
    -45.042  0.0000E+00  0.0000E+00  0.3015E-01  0.3015E-01
    -44.845  0.0000E+00  0.0000E+00  0.3015E-01  0.3015E-01
    -44.649  0.0000E+00  0.0000E+00  0.3015E-01  0.3015E-01
    -44.453  0.0000E+00  0.0000E+00  0.3015E-01  0.3015E-01
    -44.256  0.0000E+00  0.0000E+00  0.3015E-01  0.3015E-01
    -44.060  0.0000E+00  0.0000E+00  0.3015E-01  0.3015E-01
    -43.863  0.0000E+00  0.0000E+00  0.3015E-01  0.3015E-01
    -43.667  0.5118E-01  0.5118E-01  0.4020E-01  0.4020E-01
    -43.471  0.5077E-01  0.5078E-01  0.5017E-01  0.5017E-01
    -43.274  0.0000E+00  0.0000E+00  0.5025E-01  0.5025E-01
    -43.078  0.0000E+00  0.0000E+00  0.5025E-01  0.5025E-01
    -42.881  0.0000E+00  0.0000E+00  0.5025E-01  0.5025E-01
    -42.685  0.5118E-01  0.5118E-01  0.6030E-01  0.6030E-01
    -42.489  0.0000E+00  0.0000E+00  0.6030E-01  0.6030E-01
    -42.292  0.0000E+00  0.0000E+00  0.6030E-01  0.6030E-01
    -42.096  0.0000E+00  0.0000E+00  0.6030E-01  0.6030E-01
    -41.900  0.0000E+00  0.0000E+00  0.6030E-01  0.6030E-01
    -41.703  0.0000E+00  0.0000E+00  0.6030E-01  0.6030E-01
    -41.507  0.0000E+00  0.0000E+00  0.6030E-01  0.6030E-01
    -41.310  0.0000E+00  0.0000E+00  0.6030E-01  0.6030E-01
    -41.114  0.0000E+00  0.0000E+00  0.6030E-01  0.6030E-01
    -40.918  0.0000E+00  0.0000E+00  0.6030E-01  0.6030E-01
    -40.721  0.0000E+00  0.0000E+00  0.6030E-01  0.6030E-01
    -40.525  0.0000E+00  0.0000E+00  0.6030E-01  0.6030E-01
    -40.328  0.0000E+00  0.0000E+00  0.6030E-01  0.6030E-01
    -40.132  0.0000E+00  0.0000E+00  0.6030E-01  0.6030E-01
    -39.936  0.0000E+00  0.0000E+00  0.6030E-01  0.6030E-01
    -39.739  0.0000E+00  0.0000E+00  0.6030E-01  0.6030E-01
    -39.543  0.0000E+00  0.0000E+00  0.6030E-01  0.6030E-01
    -39.347  0.0000E+00  0.0000E+00  0.6030E-01  0.6030E-01
    -39.150  0.0000E+00  0.0000E+00  0.6030E-01  0.6030E-01
    -38.954  0.0000E+00  0.0000E+00  0.6030E-01  0.6030E-01
    -38.757  0.0000E+00  0.0000E+00  0.6030E-01  0.6030E-01
    -38.561  0.0000E+00  0.0000E+00  0.6030E-01  0.6030E-01
    -38.365  0.0000E+00  0.0000E+00  0.6030E-01  0.6030E-01
    -38.168  0.0000E+00  0.0000E+00  0.6030E-01  0.6030E-01
    -37.972  0.0000E+00  0.0000E+00  0.6030E-01  0.6030E-01
    -37.775  0.0000E+00  0.0000E+00  0.6030E-01  0.6030E-01
    -37.579  0.0000E+00  0.0000E+00  0.6030E-01  0.6030E-01
    -37.383  0.0000E+00  0.0000E+00  0.6030E-01  0.6030E-01
    -37.186  0.0000E+00  0.0000E+00  0.6030E-01  0.6030E-01
    -36.990  0.0000E+00  0.0000E+00  0.6030E-01  0.6030E-01
    -36.793  0.0000E+00  0.0000E+00  0.6030E-01  0.6030E-01
    -36.597  0.0000E+00  0.0000E+00  0.6030E-01  0.6030E-01
    -36.401  0.0000E+00  0.0000E+00  0.6030E-01  0.6030E-01
    -36.204  0.0000E+00  0.0000E+00  0.6030E-01  0.6030E-01
    -36.008  0.0000E+00  0.0000E+00  0.6030E-01  0.6030E-01
    -35.812  0.0000E+00  0.0000E+00  0.6030E-01  0.6030E-01
    -35.615  0.0000E+00  0.0000E+00  0.6030E-01  0.6030E-01
    -35.419  0.0000E+00  0.0000E+00  0.6030E-01  0.6030E-01
    -35.222  0.0000E+00  0.0000E+00  0.6030E-01  0.6030E-01
    -35.026  0.0000E+00  0.0000E+00  0.6030E-01  0.6030E-01
    -34.830  0.0000E+00  0.0000E+00  0.6030E-01  0.6030E-01
    -34.633  0.0000E+00  0.0000E+00  0.6030E-01  0.6030E-01
    -34.437  0.0000E+00  0.0000E+00  0.6030E-01  0.6030E-01
    -34.240  0.0000E+00  0.0000E+00  0.6030E-01  0.6030E-01
    -34.044  0.0000E+00  0.0000E+00  0.6030E-01  0.6030E-01
    -33.848  0.0000E+00  0.0000E+00  0.6030E-01  0.6030E-01
    -33.651  0.0000E+00  0.0000E+00  0.6030E-01  0.6030E-01
    -33.455  0.0000E+00  0.0000E+00  0.6030E-01  0.6030E-01
    -33.259  0.0000E+00  0.0000E+00  0.6030E-01  0.6030E-01
    -33.062  0.0000E+00  0.0000E+00  0.6030E-01  0.6030E-01
    -32.866  0.0000E+00  0.0000E+00  0.6030E-01  0.6030E-01
    -32.669  0.0000E+00  0.0000E+00  0.6030E-01  0.6030E-01
    -32.473  0.0000E+00  0.0000E+00  0.6030E-01  0.6030E-01
    -32.277  0.0000E+00  0.0000E+00  0.6030E-01  0.6030E-01
    -32.080  0.0000E+00  0.0000E+00  0.6030E-01  0.6030E-01
    -31.884  0.0000E+00  0.0000E+00  0.6030E-01  0.6030E-01
    -31.687  0.0000E+00  0.0000E+00  0.6030E-01  0.6030E-01
    -31.491  0.0000E+00  0.0000E+00  0.6030E-01  0.6030E-01
    -31.295  0.0000E+00  0.0000E+00  0.6030E-01  0.6030E-01
    -31.098  0.0000E+00  0.0000E+00  0.6030E-01  0.6030E-01
    -30.902  0.0000E+00  0.0000E+00  0.6030E-01  0.6030E-01
    -30.705  0.0000E+00  0.0000E+00  0.6030E-01  0.6030E-01
    -30.509  0.0000E+00  0.0000E+00  0.6030E-01  0.6030E-01
    -30.313  0.0000E+00  0.0000E+00  0.6030E-01  0.6030E-01
    -30.116  0.0000E+00  0.0000E+00  0.6030E-01  0.6030E-01
    -29.920  0.0000E+00  0.0000E+00  0.6030E-01  0.6030E-01
    -29.724  0.0000E+00  0.0000E+00  0.6030E-01  0.6030E-01
    -29.527  0.0000E+00  0.0000E+00  0.6030E-01  0.6030E-01
    -29.331  0.0000E+00  0.0000E+00  0.6030E-01  0.6030E-01
    -29.134  0.0000E+00  0.0000E+00  0.6030E-01  0.6030E-01
    -28.938  0.0000E+00  0.0000E+00  0.6030E-01  0.6030E-01
    -28.742  0.0000E+00  0.0000E+00  0.6030E-01  0.6030E-01
    -28.545  0.0000E+00  0.0000E+00  0.6030E-01  0.6030E-01
    -28.349  0.0000E+00  0.0000E+00  0.6030E-01  0.6030E-01
    -28.152  0.0000E+00  0.0000E+00  0.6030E-01  0.6030E-01
    -27.956  0.0000E+00  0.0000E+00  0.6030E-01  0.6030E-01
    -27.760  0.0000E+00  0.0000E+00  0.6030E-01  0.6030E-01
    -27.563  0.0000E+00  0.0000E+00  0.6030E-01  0.6030E-01
    -27.367  0.0000E+00  0.0000E+00  0.6030E-01  0.6030E-01
    -27.171  0.0000E+00  0.0000E+00  0.6030E-01  0.6030E-01
    -26.974  0.0000E+00  0.0000E+00  0.6030E-01  0.6030E-01
    -26.778  0.0000E+00  0.0000E+00  0.6030E-01  0.6030E-01
    -26.581  0.0000E+00  0.0000E+00  0.6030E-01  0.6030E-01
    -26.385  0.0000E+00  0.0000E+00  0.6030E-01  0.6030E-01
    -26.189  0.0000E+00  0.0000E+00  0.6030E-01  0.6030E-01
    -25.992  0.0000E+00  0.0000E+00  0.6030E-01  0.6030E-01
    -25.796  0.0000E+00  0.0000E+00  0.6030E-01  0.6030E-01
    -25.599  0.0000E+00  0.0000E+00  0.6030E-01  0.6030E-01
    -25.403  0.0000E+00  0.0000E+00  0.6030E-01  0.6030E-01
    -25.207  0.0000E+00  0.0000E+00  0.6030E-01  0.6030E-01
    -25.010  0.0000E+00  0.0000E+00  0.6030E-01  0.6030E-01
    -24.814  0.0000E+00  0.0000E+00  0.6030E-01  0.6030E-01
    -24.617  0.0000E+00  0.0000E+00  0.6030E-01  0.6030E-01
    -24.421  0.0000E+00  0.0000E+00  0.6030E-01  0.6030E-01
    -24.225  0.0000E+00  0.0000E+00  0.6030E-01  0.6030E-01
    -24.028  0.0000E+00  0.0000E+00  0.6030E-01  0.6030E-01
    -23.832  0.0000E+00  0.0000E+00  0.6030E-01  0.6030E-01
    -23.636  0.0000E+00  0.0000E+00  0.6030E-01  0.6030E-01
    -23.439  0.0000E+00  0.0000E+00  0.6030E-01  0.6030E-01
    -23.243  0.0000E+00  0.0000E+00  0.6030E-01  0.6030E-01
    -23.046  0.0000E+00  0.0000E+00  0.6030E-01  0.6030E-01
    -22.850  0.0000E+00  0.0000E+00  0.6030E-01  0.6030E-01
    -22.654  0.0000E+00  0.0000E+00  0.6030E-01  0.6030E-01
    -22.457  0.0000E+00  0.0000E+00  0.6030E-01  0.6030E-01
    -22.261  0.0000E+00  0.0000E+00  0.6030E-01  0.6030E-01
    -22.064  0.0000E+00  0.0000E+00  0.6030E-01  0.6030E-01
    -21.868  0.0000E+00  0.0000E+00  0.6030E-01  0.6030E-01
    -21.672  0.0000E+00  0.0000E+00  0.6030E-01  0.6030E-01
    -21.475  0.0000E+00  0.0000E+00  0.6030E-01  0.6030E-01
    -21.279  0.0000E+00  0.0000E+00  0.6030E-01  0.6030E-01
    -21.083  0.0000E+00  0.0000E+00  0.6030E-01  0.6030E-01
    -20.886  0.0000E+00  0.0000E+00  0.6030E-01  0.6030E-01
    -20.690  0.0000E+00  0.0000E+00  0.6030E-01  0.6030E-01
    -20.493  0.0000E+00  0.0000E+00  0.6030E-01  0.6030E-01
    -20.297  0.0000E+00  0.0000E+00  0.6030E-01  0.6030E-01
    -20.101  0.0000E+00  0.0000E+00  0.6030E-01  0.6030E-01
    -19.904  0.0000E+00  0.0000E+00  0.6030E-01  0.6030E-01
    -19.708  0.0000E+00  0.0000E+00  0.6030E-01  0.6030E-01
    -19.511  0.0000E+00  0.0000E+00  0.6030E-01  0.6030E-01
    -19.315  0.0000E+00  0.0000E+00  0.6030E-01  0.6030E-01
    -19.119  0.0000E+00  0.0000E+00  0.6030E-01  0.6030E-01
    -18.922  0.0000E+00  0.0000E+00  0.6030E-01  0.6030E-01
    -18.726  0.0000E+00  0.0000E+00  0.6030E-01  0.6030E-01
    -18.529  0.0000E+00  0.0000E+00  0.6030E-01  0.6030E-01
    -18.333  0.0000E+00  0.0000E+00  0.6030E-01  0.6030E-01
    -18.137  0.0000E+00  0.0000E+00  0.6030E-01  0.6030E-01
    -17.940  0.0000E+00  0.0000E+00  0.6030E-01  0.6030E-01
    -17.744  0.0000E+00  0.0000E+00  0.6030E-01  0.6030E-01
    -17.548  0.0000E+00  0.0000E+00  0.6030E-01  0.6030E-01
    -17.351  0.0000E+00  0.0000E+00  0.6030E-01  0.6030E-01
    -17.155  0.0000E+00  0.0000E+00  0.6030E-01  0.6030E-01
    -16.958  0.0000E+00  0.0000E+00  0.6030E-01  0.6030E-01
    -16.762  0.0000E+00  0.0000E+00  0.6030E-01  0.6030E-01
    -16.566  0.0000E+00  0.0000E+00  0.6030E-01  0.6030E-01
    -16.369  0.0000E+00  0.0000E+00  0.6030E-01  0.6030E-01
    -16.173  0.0000E+00  0.0000E+00  0.6030E-01  0.6030E-01
    -15.976  0.0000E+00  0.0000E+00  0.6030E-01  0.6030E-01
    -15.780  0.6195E-05  0.6074E-05  0.6030E-01  0.6030E-01
    -15.584  0.0000E+00  0.0000E+00  0.6533E-01  0.6533E-01
    -15.387  0.0000E+00  0.0000E+00  0.6533E-01  0.6533E-01
    -15.191  0.1541E-01  0.1540E-01  0.6835E-01  0.6835E-01
    -14.995  0.2556E-01  0.2556E-01  0.7537E-01  0.7537E-01
    -14.798  0.0000E+00  0.0000E+00  0.7538E-01  0.7538E-01
    -14.602  0.0000E+00  0.0000E+00  0.7538E-01  0.7538E-01
    -14.405  0.0000E+00  0.0000E+00  0.7538E-01  0.7538E-01
    -14.209  0.0000E+00  0.0000E+00  0.8040E-01  0.8040E-01
    -14.013  0.0000E+00  0.0000E+00  0.8040E-01  0.8040E-01
    -13.816  0.0000E+00  0.0000E+00  0.8040E-01  0.8040E-01
    -13.620  0.4901E-01  0.4904E-01  0.9003E-01  0.9003E-01
    -13.423  0.2550E-01  0.2550E-01  0.9546E-01  0.9546E-01
    -13.227  0.0000E+00  0.0000E+00  0.1005E+00  0.1005E+00
    -13.031  0.0000E+00  0.0000E+00  0.1005E+00  0.1005E+00
    -12.834  0.0000E+00  0.0000E+00  0.1005E+00  0.1005E+00
    -12.638  0.0000E+00  0.0000E+00  0.1005E+00  0.1005E+00
    -12.441  0.0000E+00  0.0000E+00  0.1005E+00  0.1005E+00
    -12.245  0.0000E+00  0.0000E+00  0.1005E+00  0.1005E+00
    -12.049  0.0000E+00  0.0000E+00  0.1005E+00  0.1005E+00
    -11.852  0.0000E+00  0.0000E+00  0.1005E+00  0.1005E+00
    -11.656  0.0000E+00  0.0000E+00  0.1005E+00  0.1005E+00
    -11.460  0.0000E+00  0.0000E+00  0.1005E+00  0.1005E+00
    -11.263  0.0000E+00  0.0000E+00  0.1005E+00  0.1005E+00
    -11.067  0.0000E+00  0.0000E+00  0.1005E+00  0.1005E+00
    -10.870  0.0000E+00  0.0000E+00  0.1005E+00  0.1005E+00
    -10.674  0.0000E+00  0.0000E+00  0.1005E+00  0.1005E+00
    -10.478  0.0000E+00  0.0000E+00  0.1005E+00  0.1005E+00
    -10.281  0.0000E+00  0.0000E+00  0.1005E+00  0.1005E+00
    -10.085  0.0000E+00  0.0000E+00  0.1005E+00  0.1005E+00
     -9.888  0.0000E+00  0.0000E+00  0.1005E+00  0.1005E+00
     -9.692  0.0000E+00  0.0000E+00  0.1005E+00  0.1005E+00
     -9.496  0.0000E+00  0.0000E+00  0.1005E+00  0.1005E+00
     -9.299  0.0000E+00  0.0000E+00  0.1005E+00  0.1005E+00
     -9.103  0.0000E+00  0.0000E+00  0.1005E+00  0.1005E+00
     -8.907  0.0000E+00  0.0000E+00  0.1005E+00  0.1005E+00
     -8.710  0.0000E+00  0.0000E+00  0.1005E+00  0.1005E+00
     -8.514  0.0000E+00  0.0000E+00  0.1005E+00  0.1005E+00
     -8.317  0.0000E+00  0.0000E+00  0.1005E+00  0.1005E+00
     -8.121  0.0000E+00  0.0000E+00  0.1005E+00  0.1005E+00
     -7.925  0.0000E+00  0.0000E+00  0.1005E+00  0.1005E+00
     -7.728  0.0000E+00  0.0000E+00  0.1005E+00  0.1005E+00
     -7.532  0.0000E+00  0.0000E+00  0.1005E+00  0.1005E+00
     -7.335  0.0000E+00  0.0000E+00  0.1005E+00  0.1005E+00
     -7.139  0.0000E+00  0.0000E+00  0.1005E+00  0.1005E+00
     -6.943  0.0000E+00  0.0000E+00  0.1005E+00  0.1005E+00
     -6.746  0.0000E+00  0.0000E+00  0.1005E+00  0.1005E+00
     -6.550  0.0000E+00  0.0000E+00  0.1005E+00  0.1005E+00
     -6.353  0.0000E+00  0.0000E+00  0.1005E+00  0.1005E+00
     -6.157  0.0000E+00  0.0000E+00  0.1005E+00  0.1005E+00
     -5.961  0.0000E+00  0.0000E+00  0.1005E+00  0.1005E+00
     -5.764  0.0000E+00  0.0000E+00  0.1005E+00  0.1005E+00
     -5.568  0.0000E+00  0.0000E+00  0.1005E+00  0.1005E+00
     -5.372  0.0000E+00  0.0000E+00  0.1005E+00  0.1005E+00
     -5.175  0.0000E+00  0.0000E+00  0.1005E+00  0.1005E+00
     -4.979  0.0000E+00  0.0000E+00  0.1005E+00  0.1005E+00
     -4.782  0.0000E+00  0.0000E+00  0.1005E+00  0.1005E+00
     -4.586  0.0000E+00  0.0000E+00  0.1005E+00  0.1005E+00
     -4.390  0.0000E+00  0.0000E+00  0.1005E+00  0.1005E+00
     -4.193  0.0000E+00  0.0000E+00  0.1005E+00  0.1005E+00
     -3.997  0.0000E+00  0.0000E+00  0.1005E+00  0.1005E+00
     -3.800  0.0000E+00  0.0000E+00  0.1005E+00  0.1005E+00
     -3.604  0.0000E+00  0.0000E+00  0.1005E+00  0.1005E+00
     -3.408  0.0000E+00  0.0000E+00  0.1005E+00  0.1005E+00
     -3.211  0.0000E+00  0.0000E+00  0.1005E+00  0.1005E+00
     -3.015  0.5210E-04  0.4603E-04  0.1005E+00  0.1005E+00
     -2.818  0.0000E+00  0.0000E+00  0.1055E+00  0.1055E+00
     -2.622  0.1081E-05  0.8382E-06  0.1055E+00  0.1055E+00
     -2.426  0.0000E+00  0.0000E+00  0.1106E+00  0.1106E+00
     -2.229  0.2559E-01  0.2559E-01  0.1156E+00  0.1156E+00
     -2.033  0.5117E-01  0.5118E-01  0.1307E+00  0.1307E+00
     -1.837  0.1619E-15  0.1463E-15  0.1307E+00  0.1307E+00
     -1.640  0.0000E+00  0.0000E+00  0.1357E+00  0.1357E+00
     -1.444  0.0000E+00  0.0000E+00  0.1357E+00  0.1357E+00
     -1.247  0.0000E+00  0.0000E+00  0.1457E+00  0.1457E+00
     -1.051  0.2559E-01  0.2559E-01  0.1508E+00  0.1508E+00
     -0.855  0.0000E+00  0.0000E+00  0.1508E+00  0.1508E+00
     -0.658  0.0000E+00  0.0000E+00  0.1508E+00  0.1508E+00
     -0.462  0.0000E+00  0.0000E+00  0.1508E+00  0.1508E+00
     -0.265  0.0000E+00  0.0000E+00  0.1608E+00  0.1608E+00
     -0.069  0.0000E+00  0.0000E+00  0.1608E+00  0.1608E+00
      0.127  0.0000E+00  0.0000E+00  0.1608E+00  0.1608E+00
      0.324  0.0000E+00  0.0000E+00  0.1658E+00  0.1658E+00
      0.520  0.2428E-01  0.2430E-01  0.1706E+00  0.1706E+00
      0.716  0.4668E-08  0.5020E-08  0.1759E+00  0.1759E+00
      0.913  0.0000E+00  0.0000E+00  0.1910E+00  0.1910E+00
      1.109  0.0000E+00  0.0000E+00  0.1960E+00  0.1960E+00
      1.306  0.5330E-05  0.5102E-05  0.1960E+00  0.1960E+00
      1.502  0.0000E+00  0.0000E+00  0.2060E+00  0.2060E+00
      1.698  0.0000E+00  0.0000E+00  0.2060E+00  0.2060E+00
      1.895  0.0000E+00  0.0000E+00  0.2060E+00  0.2060E+00
      2.091  0.0000E+00  0.0000E+00  0.2111E+00  0.2111E+00
      2.288  0.0000E+00  0.0000E+00  0.2111E+00  0.2111E+00
      2.484  0.0000E+00  0.0000E+00  0.2111E+00  0.2111E+00
      2.680  0.1324E-01  0.1323E-01  0.2137E+00  0.2137E+00
      2.877  0.2553E-01  0.2552E-01  0.2311E+00  0.2311E+00
      3.073  0.1563E-06  0.1546E-06  0.2312E+00  0.2312E+00
      3.270  0.0000E+00  0.0000E+00  0.2412E+00  0.2412E+00
      3.466  0.0000E+00  0.0000E+00  0.2412E+00  0.2412E+00
      3.662  0.0000E+00  0.0000E+00  0.2412E+00  0.2412E+00
      3.859  0.0000E+00  0.0000E+00  0.2462E+00  0.2462E+00
      4.055  0.1435E-14  0.1148E-14  0.2462E+00  0.2462E+00
      4.251  0.0000E+00  0.0000E+00  0.2513E+00  0.2513E+00
      4.448  0.0000E+00  0.0000E+00  0.2513E+00  0.2513E+00
      4.644  0.0000E+00  0.0000E+00  0.2513E+00  0.2513E+00
      4.841  0.0000E+00  0.0000E+00  0.2513E+00  0.2513E+00
      5.037  0.0000E+00  0.0000E+00  0.2513E+00  0.2513E+00
      5.233  0.0000E+00  0.0000E+00  0.2513E+00  0.2513E+00
      5.430  0.2715E-01  0.2723E-01  0.2566E+00  0.2566E+00
      5.626  0.2504E-01  0.2501E-01  0.2712E+00  0.2712E+00
      5.823  0.1414E-03  0.1380E-03  0.2714E+00  0.2714E+00
      6.019  0.0000E+00  0.0000E+00  0.2764E+00  0.2764E+00
      6.215  0.1948E-01  0.1967E-01  0.2802E+00  0.2802E+00
      6.412  0.0000E+00  0.0000E+00  0.2864E+00  0.2864E+00
      6.608  0.0000E+00  0.0000E+00  0.2864E+00  0.2864E+00
      6.804  0.2146E-01  0.2134E-01  0.2906E+00  0.2906E+00
      7.001  0.1487E-05  0.1721E-05  0.2915E+00  0.2915E+00
      7.197  0.0000E+00  0.0000E+00  0.2965E+00  0.2965E+00
      7.394  0.0000E+00  0.0000E+00  0.3015E+00  0.3015E+00
      7.590  0.0000E+00  0.0000E+00  0.3015E+00  0.3015E+00
      7.786  0.0000E+00  0.0000E+00  0.3015E+00  0.3015E+00
      7.983  0.0000E+00  0.0000E+00  0.3015E+00  0.3015E+00
      8.179  0.0000E+00  0.0000E+00  0.3015E+00  0.3015E+00
      8.376  0.0000E+00  0.0000E+00  0.3015E+00  0.3015E+00
      8.572  0.0000E+00  0.0000E+00  0.3015E+00  0.3015E+00
      8.768  0.0000E+00  0.0000E+00  0.3015E+00  0.3015E+00
      8.965  0.0000E+00  0.0000E+00  0.3015E+00  0.3015E+00
      9.161  0.0000E+00  0.0000E+00  0.3015E+00  0.3015E+00
      9.358  0.0000E+00  0.0000E+00  0.3015E+00  0.3015E+00
      9.554  0.0000E+00  0.0000E+00  0.3015E+00  0.3015E+00
      9.750  0.0000E+00  0.0000E+00  0.3015E+00  0.3015E+00
      9.947  0.0000E+00  0.0000E+00  0.3015E+00  0.3015E+00
      9.94667178    -48.96949787  301      4.30053886      1.00000000
    -48.969  0.0000E+00  0.0000E+00  0.0000E+00  0.0000E+00  0.0000E+00  0.0000E+00  0.0000E+00  0.0000E+00  0.0000E+00  0.0000E+00  0.0000E+00  0.0000E+00  0.0000E+00  0.0000E+00  0.0000E+00  0.0000E+00  0.0000E+00  0.0000E+00
    -48.773  0.0000E+00  0.0000E+00  0.0000E+00  0.0000E+00  0.0000E+00  0.0000E+00  0.0000E+00  0.0000E+00  0.0000E+00  0.0000E+00  0.0000E+00  0.0000E+00  0.0000E+00  0.0000E+00  0.0000E+00  0.0000E+00  0.0000E+00  0.0000E+00
    -48.577  0.0000E+00  0.0000E+00  0.0000E+00  0.0000E+00  0.0000E+00  0.0000E+00  0.0000E+00  0.0000E+00  0.0000E+00  0.0000E+00  0.0000E+00  0.0000E+00  0.0000E+00  0.0000E+00  0.0000E+00  0.0000E+00  0.0000E+00  0.0000E+00
    -48.380  0.0000E+00  0.0000E+00  0.0000E+00  0.0000E+00  0.0000E+00  0.0000E+00  0.0000E+00  0.0000E+00  0.0000E+00  0.0000E+00  0.0000E+00  0.0000E+00  0.0000E+00  0.0000E+00  0.0000E+00  0.0000E+00  0.0000E+00  0.0000E+00
    -48.184  0.0000E+00  0.0000E+00  0.0000E+00  0.0000E+00  0.0000E+00  0.0000E+00  0.0000E+00  0.0000E+00  0.0000E+00  0.0000E+00  0.0000E+00  0.0000E+00  0.0000E+00  0.0000E+00  0.0000E+00  0.0000E+00  0.0000E+00  0.0000E+00
    -47.988  0.0000E+00  0.0000E+00  0.0000E+00  0.0000E+00  0.0000E+00  0.0000E+00  0.0000E+00  0.0000E+00  0.0000E+00  0.0000E+00  0.0000E+00  0.0000E+00  0.0000E+00  0.0000E+00  0.0000E+00  0.0000E+00  0.0000E+00  0.0000E+00
    -47.791  0.0000E+00  0.0000E+00  0.0000E+00  0.0000E+00  0.0000E+00  0.0000E+00  0.0000E+00  0.0000E+00  0.0000E+00  0.0000E+00  0.0000E+00  0.0000E+00  0.0000E+00  0.0000E+00  0.0000E+00  0.0000E+00  0.0000E+00  0.0000E+00
    -47.595  0.0000E+00  0.0000E+00  0.0000E+00  0.0000E+00  0.0000E+00  0.0000E+00  0.0000E+00  0.0000E+00  0.0000E+00  0.0000E+00  0.0000E+00  0.0000E+00  0.0000E+00  0.0000E+00  0.0000E+00  0.0000E+00  0.0000E+00  0.0000E+00
    -47.398  0.0000E+00  0.0000E+00  0.0000E+00  0.0000E+00  0.0000E+00  0.0000E+00  0.0000E+00  0.0000E+00  0.0000E+00  0.0000E+00  0.0000E+00  0.0000E+00  0.0000E+00  0.0000E+00  0.0000E+00  0.0000E+00  0.0000E+00  0.0000E+00
    -47.202  0.0000E+00  0.0000E+00  0.0000E+00  0.0000E+00  0.0000E+00  0.0000E+00  0.0000E+00  0.0000E+00  0.0000E+00  0.0000E+00  0.0000E+00  0.0000E+00  0.0000E+00  0.0000E+00  0.0000E+00  0.0000E+00  0.0000E+00  0.0000E+00
    -47.006  0.0000E+00  0.0000E+00  0.0000E+00  0.0000E+00  0.0000E+00  0.0000E+00  0.0000E+00  0.0000E+00  0.0000E+00  0.0000E+00  0.0000E+00  0.0000E+00  0.0000E+00  0.0000E+00  0.0000E+00  0.0000E+00  0.0000E+00  0.0000E+00
    -46.809  0.0000E+00  0.0000E+00  0.0000E+00  0.0000E+00  0.0000E+00  0.0000E+00  0.0000E+00  0.0000E+00  0.0000E+00  0.0000E+00  0.0000E+00  0.0000E+00  0.0000E+00  0.0000E+00  0.0000E+00  0.0000E+00  0.0000E+00  0.0000E+00
    -46.613  0.0000E+00  0.0000E+00  0.0000E+00  0.0000E+00  0.0000E+00  0.0000E+00  0.0000E+00  0.0000E+00  0.0000E+00  0.0000E+00  0.0000E+00  0.0000E+00  0.0000E+00  0.0000E+00  0.0000E+00  0.0000E+00  0.0000E+00  0.0000E+00
    -46.416  0.0000E+00  0.0000E+00  0.0000E+00  0.0000E+00  0.0000E+00  0.0000E+00  0.0000E+00  0.0000E+00  0.0000E+00  0.0000E+00  0.0000E+00  0.0000E+00  0.0000E+00  0.0000E+00  0.0000E+00  0.0000E+00  0.0000E+00  0.0000E+00
    -46.220  0.5724E-04  0.5373E-04  0.1291E-03  0.3110E-02  0.1468E-02  0.5044E+01  0.2477E-08  0.2588E-03  0.1284E-10  0.2868E-08  0.6811E-05  0.6012E-04  0.1729E-04  0.1433E-03  0.2006E-09  0.3184E-08  0.4929E-05  0.1850E-04
    -46.024  0.0000E+00  0.0000E+00  0.0000E+00  0.0000E+00  0.0000E+00  0.0000E+00  0.0000E+00  0.0000E+00  0.0000E+00  0.0000E+00  0.0000E+00  0.0000E+00  0.0000E+00  0.0000E+00  0.0000E+00  0.0000E+00  0.0000E+00  0.0000E+00
    -45.827  0.0000E+00  0.0000E+00  0.0000E+00  0.0000E+00  0.0000E+00  0.0000E+00  0.0000E+00  0.0000E+00  0.0000E+00  0.0000E+00  0.0000E+00  0.0000E+00  0.0000E+00  0.0000E+00  0.0000E+00  0.0000E+00  0.0000E+00  0.0000E+00
    -45.631  0.0000E+00  0.0000E+00  0.0000E+00  0.0000E+00  0.0000E+00  0.0000E+00  0.0000E+00  0.0000E+00  0.0000E+00  0.0000E+00  0.0000E+00  0.0000E+00  0.0000E+00  0.0000E+00  0.0000E+00  0.0000E+00  0.0000E+00  0.0000E+00
    -45.435  0.0000E+00  0.0000E+00  0.0000E+00  0.0000E+00  0.0000E+00  0.0000E+00  0.0000E+00  0.0000E+00  0.0000E+00  0.0000E+00  0.0000E+00  0.0000E+00  0.0000E+00  0.0000E+00  0.0000E+00  0.0000E+00  0.0000E+00  0.0000E+00
    -45.238  0.0000E+00  0.0000E+00  0.0000E+00  0.0000E+00  0.0000E+00  0.0000E+00  0.0000E+00  0.0000E+00  0.0000E+00  0.0000E+00  0.0000E+00  0.0000E+00  0.0000E+00  0.0000E+00  0.0000E+00  0.0000E+00  0.0000E+00  0.0000E+00
    -45.042  0.0000E+00  0.0000E+00  0.0000E+00  0.0000E+00  0.0000E+00  0.0000E+00  0.0000E+00  0.0000E+00  0.0000E+00  0.0000E+00  0.0000E+00  0.0000E+00  0.0000E+00  0.0000E+00  0.0000E+00  0.0000E+00  0.0000E+00  0.0000E+00
    -44.845  0.0000E+00  0.0000E+00  0.0000E+00  0.0000E+00  0.0000E+00  0.0000E+00  0.0000E+00  0.0000E+00  0.0000E+00  0.0000E+00  0.0000E+00  0.0000E+00  0.0000E+00  0.0000E+00  0.0000E+00  0.0000E+00  0.0000E+00  0.0000E+00
    -44.649  0.0000E+00  0.0000E+00  0.0000E+00  0.0000E+00  0.0000E+00  0.0000E+00  0.0000E+00  0.0000E+00  0.0000E+00  0.0000E+00  0.0000E+00  0.0000E+00  0.0000E+00  0.0000E+00  0.0000E+00  0.0000E+00  0.0000E+00  0.0000E+00
    -44.453  0.0000E+00  0.0000E+00  0.0000E+00  0.0000E+00  0.0000E+00  0.0000E+00  0.0000E+00  0.0000E+00  0.0000E+00  0.0000E+00  0.0000E+00  0.0000E+00  0.0000E+00  0.0000E+00  0.0000E+00  0.0000E+00  0.0000E+00  0.0000E+00
    -44.256  0.0000E+00  0.0000E+00  0.0000E+00  0.0000E+00  0.0000E+00  0.0000E+00  0.0000E+00  0.0000E+00  0.0000E+00  0.0000E+00  0.0000E+00  0.0000E+00  0.0000E+00  0.0000E+00  0.0000E+00  0.0000E+00  0.0000E+00  0.0000E+00
    -44.060  0.0000E+00  0.0000E+00  0.0000E+00  0.0000E+00  0.0000E+00  0.0000E+00  0.0000E+00  0.0000E+00  0.0000E+00  0.0000E+00  0.0000E+00  0.0000E+00  0.0000E+00  0.0000E+00  0.0000E+00  0.0000E+00  0.0000E+00  0.0000E+00
    -43.863  0.0000E+00  0.0000E+00  0.0000E+00  0.0000E+00  0.0000E+00  0.0000E+00  0.0000E+00  0.0000E+00  0.0000E+00  0.0000E+00  0.0000E+00  0.0000E+00  0.0000E+00  0.0000E+00  0.0000E+00  0.0000E+00  0.0000E+00  0.0000E+00
    -43.667  0.4777E-09  0.4865E-12  0.3649E-07  0.1575E-11  0.5829E-06  0.1273E-10  0.5060E+01  0.1616E-03  0.7414E-04  0.1005E-05  0.4331E-10  0.1002E-12  0.7431E-10  0.2518E-12  0.6412E-04  0.1521E-04  0.5914E-10  0.1112E-12
    -43.471  0.6098E-04  0.8176E-04  0.2634E+00  0.1942E-03  0.4745E+01  0.1963E-02  0.6183E-06  0.6010E-13  0.3595E-11  0.6957E-13  0.9959E-04  0.9583E-05  0.1998E-03  0.2273E-04  0.1735E-10  0.1900E-12  0.3159E-04  0.8346E-05
    -43.274  0.0000E+00  0.0000E+00  0.0000E+00  0.0000E+00  0.0000E+00  0.0000E+00  0.0000E+00  0.0000E+00  0.0000E+00  0.0000E+00  0.0000E+00  0.0000E+00  0.0000E+00  0.0000E+00  0.0000E+00  0.0000E+00  0.0000E+00  0.0000E+00
    -43.078  0.0000E+00  0.0000E+00  0.0000E+00  0.0000E+00  0.0000E+00  0.0000E+00  0.0000E+00  0.0000E+00  0.0000E+00  0.0000E+00  0.0000E+00  0.0000E+00  0.0000E+00  0.0000E+00  0.0000E+00  0.0000E+00  0.0000E+00  0.0000E+00
    -42.881  0.0000E+00  0.0000E+00  0.0000E+00  0.0000E+00  0.0000E+00  0.0000E+00  0.0000E+00  0.0000E+00  0.0000E+00  0.0000E+00  0.0000E+00  0.0000E+00  0.0000E+00  0.0000E+00  0.0000E+00  0.0000E+00  0.0000E+00  0.0000E+00
    -42.685  0.3580E-04  0.2178E-08  0.4787E+01  0.5261E-04  0.2663E+00  0.9163E-05  0.1311E-09  0.4942E-12  0.3652E-10  0.3737E-13  0.1507E-04  0.4834E-05  0.2826E-04  0.3463E-05  0.6025E-11  0.3658E-13  0.3129E-05  0.6423E-08
    -42.489  0.0000E+00  0.0000E+00  0.0000E+00  0.0000E+00  0.0000E+00  0.0000E+00  0.0000E+00  0.0000E+00  0.0000E+00  0.0000E+00  0.0000E+00  0.0000E+00  0.0000E+00  0.0000E+00  0.0000E+00  0.0000E+00  0.0000E+00  0.0000E+00
    -42.292  0.0000E+00  0.0000E+00  0.0000E+00  0.0000E+00  0.0000E+00  0.0000E+00  0.0000E+00  0.0000E+00  0.0000E+00  0.0000E+00  0.0000E+00  0.0000E+00  0.0000E+00  0.0000E+00  0.0000E+00  0.0000E+00  0.0000E+00  0.0000E+00
    -42.096  0.0000E+00  0.0000E+00  0.0000E+00  0.0000E+00  0.0000E+00  0.0000E+00  0.0000E+00  0.0000E+00  0.0000E+00  0.0000E+00  0.0000E+00  0.0000E+00  0.0000E+00  0.0000E+00  0.0000E+00  0.0000E+00  0.0000E+00  0.0000E+00
    -41.900  0.0000E+00  0.0000E+00  0.0000E+00  0.0000E+00  0.0000E+00  0.0000E+00  0.0000E+00  0.0000E+00  0.0000E+00  0.0000E+00  0.0000E+00  0.0000E+00  0.0000E+00  0.0000E+00  0.0000E+00  0.0000E+00  0.0000E+00  0.0000E+00
    -41.703  0.0000E+00  0.0000E+00  0.0000E+00  0.0000E+00  0.0000E+00  0.0000E+00  0.0000E+00  0.0000E+00  0.0000E+00  0.0000E+00  0.0000E+00  0.0000E+00  0.0000E+00  0.0000E+00  0.0000E+00  0.0000E+00  0.0000E+00  0.0000E+00
    -41.507  0.0000E+00  0.0000E+00  0.0000E+00  0.0000E+00  0.0000E+00  0.0000E+00  0.0000E+00  0.0000E+00  0.0000E+00  0.0000E+00  0.0000E+00  0.0000E+00  0.0000E+00  0.0000E+00  0.0000E+00  0.0000E+00  0.0000E+00  0.0000E+00
    -41.310  0.0000E+00  0.0000E+00  0.0000E+00  0.0000E+00  0.0000E+00  0.0000E+00  0.0000E+00  0.0000E+00  0.0000E+00  0.0000E+00  0.0000E+00  0.0000E+00  0.0000E+00  0.0000E+00  0.0000E+00  0.0000E+00  0.0000E+00  0.0000E+00
    -41.114  0.0000E+00  0.0000E+00  0.0000E+00  0.0000E+00  0.0000E+00  0.0000E+00  0.0000E+00  0.0000E+00  0.0000E+00  0.0000E+00  0.0000E+00  0.0000E+00  0.0000E+00  0.0000E+00  0.0000E+00  0.0000E+00  0.0000E+00  0.0000E+00
    -40.918  0.0000E+00  0.0000E+00  0.0000E+00  0.0000E+00  0.0000E+00  0.0000E+00  0.0000E+00  0.0000E+00  0.0000E+00  0.0000E+00  0.0000E+00  0.0000E+00  0.0000E+00  0.0000E+00  0.0000E+00  0.0000E+00  0.0000E+00  0.0000E+00
    -40.721  0.0000E+00  0.0000E+00  0.0000E+00  0.0000E+00  0.0000E+00  0.0000E+00  0.0000E+00  0.0000E+00  0.0000E+00  0.0000E+00  0.0000E+00  0.0000E+00  0.0000E+00  0.0000E+00  0.0000E+00  0.0000E+00  0.0000E+00  0.0000E+00
    -40.525  0.0000E+00  0.0000E+00  0.0000E+00  0.0000E+00  0.0000E+00  0.0000E+00  0.0000E+00  0.0000E+00  0.0000E+00  0.0000E+00  0.0000E+00  0.0000E+00  0.0000E+00  0.0000E+00  0.0000E+00  0.0000E+00  0.0000E+00  0.0000E+00
    -40.328  0.0000E+00  0.0000E+00  0.0000E+00  0.0000E+00  0.0000E+00  0.0000E+00  0.0000E+00  0.0000E+00  0.0000E+00  0.0000E+00  0.0000E+00  0.0000E+00  0.0000E+00  0.0000E+00  0.0000E+00  0.0000E+00  0.0000E+00  0.0000E+00
    -40.132  0.0000E+00  0.0000E+00  0.0000E+00  0.0000E+00  0.0000E+00  0.0000E+00  0.0000E+00  0.0000E+00  0.0000E+00  0.0000E+00  0.0000E+00  0.0000E+00  0.0000E+00  0.0000E+00  0.0000E+00  0.0000E+00  0.0000E+00  0.0000E+00
    -39.936  0.0000E+00  0.0000E+00  0.0000E+00  0.0000E+00  0.0000E+00  0.0000E+00  0.0000E+00  0.0000E+00  0.0000E+00  0.0000E+00  0.0000E+00  0.0000E+00  0.0000E+00  0.0000E+00  0.0000E+00  0.0000E+00  0.0000E+00  0.0000E+00
    -39.739  0.0000E+00  0.0000E+00  0.0000E+00  0.0000E+00  0.0000E+00  0.0000E+00  0.0000E+00  0.0000E+00  0.0000E+00  0.0000E+00  0.0000E+00  0.0000E+00  0.0000E+00  0.0000E+00  0.0000E+00  0.0000E+00  0.0000E+00  0.0000E+00
    -39.543  0.0000E+00  0.0000E+00  0.0000E+00  0.0000E+00  0.0000E+00  0.0000E+00  0.0000E+00  0.0000E+00  0.0000E+00  0.0000E+00  0.0000E+00  0.0000E+00  0.0000E+00  0.0000E+00  0.0000E+00  0.0000E+00  0.0000E+00  0.0000E+00
    -39.347  0.0000E+00  0.0000E+00  0.0000E+00  0.0000E+00  0.0000E+00  0.0000E+00  0.0000E+00  0.0000E+00  0.0000E+00  0.0000E+00  0.0000E+00  0.0000E+00  0.0000E+00  0.0000E+00  0.0000E+00  0.0000E+00  0.0000E+00  0.0000E+00
    -39.150  0.0000E+00  0.0000E+00  0.0000E+00  0.0000E+00  0.0000E+00  0.0000E+00  0.0000E+00  0.0000E+00  0.0000E+00  0.0000E+00  0.0000E+00  0.0000E+00  0.0000E+00  0.0000E+00  0.0000E+00  0.0000E+00  0.0000E+00  0.0000E+00