       N       E                     dE             d eps       ncg     rms          rms(c)
DAV:   1     0.130996068017E+04    0.13100E+04   -0.48051E+04   240   0.166E+03
DAV:   2     0.865176974224E+02   -0.12234E+04   -0.11568E+04   256   0.540E+02
DAV:   3    -0.109456639517E+03   -0.19597E+03   -0.18787E+03   296   0.201E+02
DAV:   4    -0.120904794854E+03   -0.11448E+02   -0.10652E+02   280   0.454E+01
DAV:   5    -0.121405400657E+03   -0.50061E+00   -0.49937E+00   272   0.841E+00    0.640E+01
RMM:   6    -0.122440644986E+03   -0.10352E+01   -0.48780E+02   299   0.912E+01    0.813E+01
RMM:   7    -0.913391808650E+02    0.31101E+02   -0.22220E+02   274   0.607E+01    0.238E+01
RMM:   8    -0.923296681952E+02   -0.99049E+00   -0.26462E+01   269   0.185E+01    0.156E+01
RMM:   9    -0.913259665150E+02    0.10037E+01   -0.39484E+00   265   0.832E+00    0.638E+00
RMM:  10    -0.913731468826E+02   -0.47180E-01   -0.22180E+00   261   0.604E+00    0.470E+00
RMM:  11    -0.913220256701E+02    0.51121E-01   -0.28096E-01   289   0.238E+00    0.299E+00
RMM:  12    -0.912902453657E+02    0.31780E-01   -0.17505E-01   266   0.196E+00    0.117E+00
RMM:  13    -0.912928856867E+02   -0.26403E-02   -0.14256E-02   287   0.552E-01    0.410E-01
RMM:  14    -0.912931380996E+02   -0.25241E-03   -0.24043E-03   282   0.199E-01    0.161E-01
RMM:  15    -0.912931413298E+02   -0.32302E-05   -0.54337E-04   252   0.948E-02    0.914E-02
RMM:  16    -0.912931666588E+02   -0.25329E-04   -0.17692E-04   248   0.589E-02    0.502E-02
RMM:  17    -0.912931766276E+02   -0.99688E-05   -0.34767E-05   166   0.294E-02
   1 F= -.91293177E+02 E0= -.91293177E+02  d E =-.912932E+02  mag=     0.0000
       N       E                     dE             d eps       ncg     rms          rms(c)
DAV:   1    -0.889982723373E+02    0.22949E+01   -0.47570E+02   244   0.171E+02    0.853E+00
RMM:   2    -0.923473549693E+02   -0.33491E+01   -0.33781E+01   294   0.340E+01    0.719E+00
RMM:   3    -0.923152870921E+02    0.32068E-01   -0.15784E+00   294   0.627E+00    0.410E+00
RMM:   4    -0.922668769879E+02    0.48410E-01   -0.20674E-01   249   0.214E+00    0.314E+00
RMM:   5    -0.922409969323E+02    0.25880E-01   -0.14459E-01   257   0.169E+00    0.112E+00
RMM:   6    -0.922429117162E+02   -0.19148E-02   -0.20395E-02   273   0.699E-01    0.368E-01
RMM:   7    -0.922417701342E+02    0.11416E-02   -0.31008E-03   276   0.253E-01    0.235E-01
RMM:   8    -0.922413283740E+02    0.44176E-03   -0.13335E-03   255   0.175E-01    0.127E-01
RMM:   9    -0.922412194535E+02    0.10892E-03   -0.63294E-04   257   0.118E-01    0.362E-02
RMM:  10    -0.922412043231E+02    0.15130E-04   -0.65197E-05   230   0.391E-02    0.157E-02
RMM:  11    -0.922412044241E+02   -0.10097E-06   -0.85911E-06   142   0.163E-02
   2 F= -.92241204E+02 E0= -.92241204E+02  d E =-.948028E+00  mag=    -0.0000
       N       E                     dE             d eps       ncg     rms          rms(c)
DAV:   1    -0.922411899241E+02    0.14399E-04   -0.39609E-03   252   0.493E-01    0.255E-02
RMM:   2    -0.922412149577E+02   -0.25034E-04   -0.25132E-04   296   0.941E-02    0.187E-02
RMM:   3    -0.922412155917E+02   -0.63399E-06   -0.85167E-06   142   0.160E-02
   3 F= -.92241216E+02 E0= -.92241216E+02  d E =-.948039E+00  mag=    -0.0000
       N       E                     dE             d eps       ncg     rms          rms(c)
DAV:   1    -0.916870353394E+02    0.55418E+00   -0.22497E+01   328   0.763E+01    0.301E+00
RMM:   2    -0.922767840453E+02   -0.58975E+00   -0.61011E+00   294   0.125E+01    0.182E+00
RMM:   3    -0.922634676475E+02    0.13316E-01   -0.32576E-01   278   0.260E+00    0.102E+00
RMM:   4    -0.922605345307E+02    0.29331E-02   -0.14638E-02   296   0.543E-01    0.765E-01
RMM:   5    -0.922593207905E+02    0.12137E-02   -0.52456E-03   262   0.360E-01    0.548E-01
RMM:   6    -0.922581709988E+02    0.11498E-02   -0.46676E-03   254   0.380E-01    0.130E-01
RMM:   7    -0.922581463384E+02    0.24660E-04   -0.14765E-03   305   0.147E-01    0.558E-02
RMM:   8    -0.922581159131E+02    0.30425E-04   -0.48393E-05   207   0.374E-02    0.321E-02
RMM:   9    -0.922581143784E+02    0.15347E-05   -0.21658E-05   147   0.277E-02
   4 F= -.92258114E+02 E0= -.92258114E+02  d E =-.168988E-01  mag=    -0.0000
       N       E                     dE             d eps       ncg     rms          rms(c)
DAV:   1    -0.921891325472E+02    0.68983E-01   -0.29789E+00   328   0.278E+01    0.110E+00
RMM:   2    -0.922726269723E+02   -0.83494E-01   -0.86549E-01   290   0.465E+00    0.669E-01
RMM:   3    -0.922674991204E+02    0.51279E-02   -0.48815E-02   284   0.994E-01    0.381E-01
RMM:   4    -0.922670413977E+02    0.45772E-03   -0.15371E-03   298   0.170E-01    0.294E-01
RMM:   5    -0.922668913149E+02    0.15008E-03   -0.12768E-03   276   0.166E-01    0.174E-01
RMM:   6    -0.922666760232E+02    0.21529E-03   -0.10109E-03   277   0.150E-01    0.367E-02
RMM:   7    -0.922666670055E+02    0.90177E-05   -0.12570E-04   261   0.422E-02    0.190E-02
RMM:   8    -0.922666648861E+02    0.21194E-05   -0.93479E-06   144   0.165E-02
   5 F= -.92266665E+02 E0= -.92266665E+02  d E =-.254493E-01  mag=     0.0000
       N       E                     dE             d eps       ncg     rms          rms(c)
DAV:   1    -0.921875491319E+02    0.79118E-01   -0.29944E+00   328   0.302E+01    0.123E+00
RMM:   2    -0.922737117520E+02   -0.86163E-01   -0.85580E-01   298   0.471E+00    0.619E-01
RMM:   3    -0.922794980615E+02   -0.57863E-02   -0.48706E-02   280   0.915E-01    0.356E-01
RMM:   4    -0.922789149264E+02    0.58314E-03   -0.13687E-03   306   0.184E-01    0.272E-01
RMM:   5    -0.922786756867E+02    0.23924E-03   -0.60625E-04   266   0.141E-01    0.140E-01
RMM:   6    -0.922786481548E+02    0.27532E-04   -0.31352E-04   260   0.968E-02    0.376E-02
RMM:   7    -0.922786495451E+02   -0.13903E-05   -0.38824E-05   176   0.291E-02
   6 F= -.92278650E+02 E0= -.92278650E+02  d E =-.119847E-01  mag=     0.0000
       N       E                     dE             d eps       ncg     rms          rms(c)
DAV:   1    -0.914898788492E+02    0.78877E+00   -0.27071E+01   328   0.901E+01    0.376E+00
RMM:   2    -0.922708283720E+02   -0.78095E+00   -0.77559E+00   298   0.142E+01    0.216E+00
RMM:   3    -0.923175276209E+02   -0.46699E-01   -0.43670E-01   280   0.277E+00    0.108E+00
RMM:   4    -0.923122294649E+02    0.52982E-02   -0.13367E-02   300   0.584E-01    0.833E-01
RMM:   5    -0.923101087408E+02    0.21207E-02   -0.41597E-03   264   0.365E-01    0.472E-01
RMM:   6    -0.923098017550E+02    0.30699E-03   -0.32286E-03   260   0.312E-01    0.116E-01
RMM:   7    -0.923098294302E+02   -0.27675E-04   -0.47789E-04   323   0.951E-02    0.462E-02
RMM:   8    -0.923098229741E+02    0.64561E-05   -0.66120E-05   200   0.338E-02
   7 F= -.92309823E+02 E0= -.92309823E+02  d E =-.431581E-01  mag=    -0.0000
       N       E                     dE             d eps       ncg     rms          rms(c)
DAV:   1    -0.889399903433E+02    0.33698E+01   -0.10832E+02   328   0.179E+02    0.794E+00
RMM:   2    -0.921541639197E+02   -0.32142E+01   -0.31850E+01   295   0.291E+01    0.570E+00
RMM:   3    -0.923257038422E+02   -0.17154E+00   -0.20414E+00   283   0.604E+00    0.233E+00
RMM:   4    -0.923072237213E+02    0.18480E-01   -0.67911E-02   309   0.128E+00    0.184E+00
RMM:   5    -0.922990078160E+02    0.82159E-02   -0.15660E-02   266   0.696E-01    0.107E+00
RMM:   6    -0.922975819764E+02    0.14258E-02   -0.13517E-02   258   0.633E-01    0.361E-01
RMM:   7    -0.922977282899E+02   -0.14631E-03   -0.28143E-03   301   0.258E-01    0.117E-01
RMM:   8    -0.922977198744E+02    0.84155E-05   -0.44382E-04   278   0.811E-02    0.785E-02
RMM:   9    -0.922977228497E+02   -0.29753E-05   -0.12576E-04   250   0.523E-02    0.258E-02
RMM:  10    -0.922977223704E+02    0.47933E-06   -0.16975E-05   150   0.224E-02
   8 F= -.92297722E+02 E0= -.92297722E+02  d E =-.310575E-01  mag=    -0.0000
       N       E                     dE             d eps       ncg     rms          rms(c)
DAV:   1    -0.908965354643E+02    0.14012E+01   -0.47057E+01   328   0.119E+02    0.486E+00
RMM:   2    -0.922514512835E+02   -0.13549E+01   -0.13511E+01   300   0.185E+01    0.312E+00
RMM:   3    -0.923330122684E+02   -0.81561E-01   -0.77621E-01   270   0.371E+00    0.153E+00
RMM:   4    -0.923248887016E+02    0.81236E-02   -0.28562E-02   313   0.844E-01    0.113E+00
RMM:   5    -0.923216526836E+02    0.32360E-02   -0.47611E-03   280   0.370E-01    0.741E-01
RMM:   6    -0.923207829009E+02    0.86978E-03   -0.66609E-03   266   0.448E-01    0.153E-01
RMM:   7    -0.923207989679E+02   -0.16067E-04   -0.86479E-04   300   0.143E-01    0.583E-02
RMM:   8    -0.923208017738E+02   -0.28058E-05   -0.88800E-05   239   0.434E-02
   9 F= -.92320802E+02 E0= -.92320802E+02  d E =-.541369E-01  mag=     0.0000
       N       E                     dE             d eps       ncg     rms          rms(c)
DAV:   1    -0.922465119175E+02    0.74287E-01   -0.24820E+00   328   0.275E+01    0.106E+00
RMM:   2    -0.923170807976E+02   -0.70569E-01   -0.70224E-01   300   0.424E+00    0.514E-01
RMM:   3    -0.923220526946E+02   -0.49719E-02   -0.38381E-02   272   0.809E-01    0.308E-01
RMM:   4    -0.923217096063E+02    0.34309E-03   -0.12476E-03   322   0.158E-01    0.249E-01
RMM:   5    -0.923214674305E+02    0.24218E-03   -0.35136E-04   262   0.107E-01    0.126E-01
RMM:   6    -0.923214358185E+02    0.31612E-04   -0.26420E-04   263   0.859E-02    0.177E-02
RMM:   7    -0.923214357807E+02    0.37819E-07   -0.19994E-05   148   0.234E-02
  10 F= -.92321436E+02 E0= -.92321436E+02  d E =-.547709E-01  mag=     0.0000
       N       E                     dE             d eps       ncg     rms          rms(c)
DAV:   1    -0.923151734641E+02    0.62624E-02   -0.25842E-01   328   0.970E+00    0.381E-01
RMM:   2    -0.923238663184E+02   -0.86929E-02   -0.86849E-02   298   0.147E+00    0.177E-01
RMM:   3    -0.923245022793E+02   -0.63596E-03   -0.48878E-03   269   0.290E-01    0.107E-01
RMM:   4    -0.923244574121E+02    0.44867E-04   -0.15261E-04   260   0.567E-02    0.856E-02
RMM:   5    -0.923244332427E+02    0.24169E-04   -0.34597E-05   183   0.349E-02    0.486E-02
RMM:   6    -0.923244281236E+02    0.51191E-05   -0.31825E-05   154   0.342E-02
  11 F= -.92324428E+02 E0= -.92324428E+02  d E =-.299234E-02  mag=     0.0000
       N       E                     dE             d eps       ncg     rms          rms(c)
DAV:   1    -0.922489342392E+02    0.75499E-01   -0.23272E+00   328   0.291E+01    0.114E+00
RMM:   2    -0.923273125305E+02   -0.78378E-01   -0.78238E-01   298   0.439E+00    0.533E-01
RMM:   3    -0.923329435594E+02   -0.56310E-02   -0.43567E-02   270   0.867E-01    0.323E-01
RMM:   4    -0.923325583572E+02    0.38520E-03   -0.13962E-03   318   0.168E-01    0.259E-01
RMM:   5    -0.923323168426E+02    0.24151E-03   -0.35228E-04   278   0.106E-01    0.140E-01
RMM:   6    -0.923322755493E+02    0.41293E-04   -0.30906E-04   284   0.959E-02    0.269E-02
RMM:   7    -0.923322746827E+02    0.86664E-06   -0.28291E-05   150   0.289E-02
  12 F= -.92332275E+02 E0= -.92332275E+02  d E =-.108389E-01  mag=    -0.0000
       N       E                     dE             d eps       ncg     rms          rms(c)
DAV:   1    -0.920075134503E+02    0.32476E+00   -0.93047E+00   328   0.582E+01    0.229E+00
RMM:   2    -0.923202827265E+02   -0.31277E+00   -0.31162E+00   300   0.878E+00    0.111E+00
RMM:   3    -0.923445887879E+02   -0.24306E-01   -0.17276E-01   271   0.171E+00    0.651E-01
RMM:   4    -0.923430072366E+02    0.15816E-02   -0.54396E-03   321   0.324E-01    0.522E-01
RMM:   5    -0.923420370702E+02    0.97017E-03   -0.14804E-03   278   0.218E-01    0.269E-01
RMM:   6    -0.923419126133E+02    0.12446E-03   -0.10412E-03   284   0.175E-01    0.528E-02
RMM:   7    -0.923419195428E+02   -0.69296E-05   -0.13644E-04   256   0.570E-02    0.355E-02
RMM:   8    -0.923419165376E+02    0.30052E-05   -0.14858E-05   142   0.228E-02
  13 F= -.92341917E+02 E0= -.92341917E+02  d E =-.204808E-01  mag=    -0.0000
       N       E                     dE             d eps       ncg     rms          rms(c)
DAV:   1    -0.923461298957E+02   -0.42104E-02   -0.45390E-01   280   0.886E+00    0.362E-01
RMM:   2    -0.923538404123E+02   -0.77105E-02   -0.77968E-02   302   0.153E+00    0.248E-01
RMM:   3    -0.923543839775E+02   -0.54357E-03   -0.38906E-03   272   0.272E-01    0.162E-01
RMM:   4    -0.923542965839E+02    0.87394E-04   -0.16860E-04   278   0.626E-02    0.122E-01
RMM:   5    -0.923542623050E+02    0.34279E-04   -0.24908E-04   250   0.779E-02    0.446E-02
RMM:   6    -0.923542556184E+02    0.66866E-05   -0.43200E-05   201   0.324E-02
  14 F= -.92354256E+02 E0= -.92354256E+02  d E =-.123391E-01  mag=    -0.0000
       N       E                     dE             d eps       ncg     rms          rms(c)
DAV:   1    -0.923128341978E+02    0.41428E-01   -0.40885E+00   280   0.267E+01    0.109E+00
RMM:   2    -0.923825508469E+02   -0.69717E-01   -0.70489E-01   302   0.461E+00    0.763E-01
RMM:   3    -0.923873561781E+02   -0.48053E-02   -0.34949E-02   274   0.818E-01    0.500E-01
RMM:   4    -0.923865671692E+02    0.78901E-03   -0.16436E-03   282   0.193E-01    0.380E-01
RMM:   5    -0.923862637768E+02    0.30339E-03   -0.22573E-03   254   0.241E-01    0.142E-01
RMM:   6    -0.923862120517E+02    0.51725E-04   -0.43850E-04   278   0.991E-02    0.412E-02
RMM:   7    -0.923862038044E+02    0.82473E-05   -0.29323E-05   170   0.267E-02
  15 F= -.92386204E+02 E0= -.92386204E+02  d E =-.442873E-01  mag=    -0.0000
       N       E                     dE             d eps       ncg     rms          rms(c)
DAV:   1    -0.921298100206E+02    0.25640E+00   -0.16348E+01   280   0.533E+01    0.221E+00
RMM:   2    -0.924101940726E+02   -0.28038E+00   -0.28296E+00   302   0.922E+00    0.161E+00
RMM:   3    -0.924292446960E+02   -0.19051E-01   -0.14033E-01   276   0.163E+00    0.107E+00
RMM:   4    -0.924258227018E+02    0.34220E-02   -0.71873E-03   276   0.406E-01    0.802E-01
RMM:   5    -0.924247844374E+02    0.10383E-02   -0.95817E-03   254   0.503E-01    0.305E-01
RMM:   6    -0.924245606699E+02    0.22377E-03   -0.17030E-03   278   0.200E-01    0.862E-02
RMM:   7    -0.924245289237E+02    0.31746E-04   -0.13160E-04   283   0.514E-02    0.591E-02
RMM:   8    -0.924244914866E+02    0.37437E-04   -0.95826E-05   241   0.457E-02    0.300E-02
RMM:   9    -0.924244839408E+02    0.75458E-05   -0.20184E-05   143   0.262E-02
  16 F= -.92424484E+02 E0= -.92424484E+02  d E =-.825674E-01  mag=    -0.0000
       N       E                     dE             d eps       ncg     rms          rms(c)
DAV:   1    -0.912062349842E+02    0.12183E+01   -0.65470E+01   312   0.107E+02    0.462E+00
RMM:   2    -0.923209975899E+02   -0.11148E+01   -0.11161E+01   302   0.184E+01    0.366E+00
RMM:   3    -0.923933979509E+02   -0.72400E-01   -0.55790E-01   274   0.325E+00    0.247E+00
RMM:   4    -0.923780516683E+02    0.15346E-01   -0.36319E-02   282   0.915E-01    0.179E+00
RMM:   5    -0.923756233588E+02    0.24283E-02   -0.46082E-02   252   0.109E+00    0.729E-01
RMM:   6    -0.923744709695E+02    0.11524E-02   -0.65264E-03   274   0.411E-01    0.184E-01
RMM:   7    -0.923742740691E+02    0.19690E-03   -0.60353E-04   312   0.103E-01    0.126E-01
RMM:   8    -0.923741093541E+02    0.16472E-03   -0.45528E-04   263   0.101E-01    0.651E-02
RMM:   9    -0.923740808512E+02    0.28503E-04   -0.11657E-04   250   0.542E-02    0.234E-02
RMM:  10    -0.923740773739E+02    0.34773E-05   -0.19285E-05   156   0.220E-02
  17 F= -.92374077E+02 E0= -.92374077E+02  d E =-.321608E-01  mag=     0.0000
       N       E                     dE             d eps       ncg     rms          rms(c)
DAV:   1    -0.916731499617E+02    0.70093E+00   -0.41713E+01   280   0.855E+01    0.387E+00
RMM:   2    -0.923972720841E+02   -0.72412E+00   -0.73537E+00   302   0.149E+01    0.330E+00
RMM:   3    -0.924415099631E+02   -0.44238E-01   -0.37325E-01   280   0.270E+00    0.201E+00
RMM:   4    -0.924333973917E+02    0.81126E-02   -0.23046E-02   286   0.720E-01    0.156E+00
RMM:   5    -0.924297047773E+02    0.36926E-02   -0.31959E-02   251   0.900E-01    0.431E-01
RMM:   6    -0.924292756366E+02    0.42914E-03   -0.47477E-03   276   0.344E-01    0.135E-01
RMM:   7    -0.924291411300E+02    0.13451E-03   -0.36258E-04   317   0.873E-02    0.897E-02
RMM:   8    -0.924290500901E+02    0.91040E-04   -0.31503E-04   266   0.828E-02    0.360E-02
RMM:   9    -0.924290380133E+02    0.12077E-04   -0.42752E-05   171   0.353E-02    0.161E-02
RMM:  10    -0.924290371267E+02    0.88659E-06   -0.10560E-05   138   0.178E-02
  18 F= -.92429037E+02 E0= -.92429037E+02  d E =-.871206E-01  mag=    -0.0000
       N       E                     dE             d eps       ncg     rms          rms(c)
DAV:   1    -0.924271089832E+02    0.19290E-02   -0.11281E-01   280   0.445E+00    0.187E-01
RMM:   2    -0.924290405996E+02   -0.19316E-02   -0.19499E-02   302   0.766E-01    0.145E-01
RMM:   3    -0.924291723139E+02   -0.13171E-03   -0.97080E-04   273   0.136E-01    0.961E-02
RMM:   4    -0.924291483349E+02    0.23979E-04   -0.51170E-05   219   0.357E-02    0.737E-02
RMM:   5    -0.924291399764E+02    0.83585E-05   -0.74214E-05   227   0.451E-02
  19 F= -.92429140E+02 E0= -.92429140E+02  d E =-.872234E-01  mag=    -0.0000
       N       E                     dE             d eps       ncg     rms          rms(c)
DAV:   1    -0.924263365563E+02    0.28118E-02   -0.73607E-01   280   0.935E+00    0.346E-01
RMM:   2    -0.924345018691E+02   -0.81653E-02   -0.81115E-02   300   0.159E+00    0.171E-01
RMM:   3    -0.924350569703E+02   -0.55510E-03   -0.38306E-03   274   0.283E-01    0.112E-01
RMM:   4    -0.924349819227E+02    0.75048E-04   -0.12546E-04   264   0.559E-02    0.870E-02
RMM:   5    -0.924349235635E+02    0.58359E-04   -0.20591E-04   249   0.649E-02    0.317E-02
RMM:   6    -0.924349198907E+02    0.36728E-05   -0.29743E-05   162   0.292E-02
  20 F= -.92434920E+02 E0= -.92434920E+02  d E =-.577991E-02  mag=    -0.0000
       N       E                     dE             d eps       ncg     rms          rms(c)
DAV:   1    -0.923669846304E+02    0.67939E-01   -0.66296E+00   280   0.281E+01    0.104E+00
RMM:   2    -0.924406198840E+02   -0.73635E-01   -0.73095E-01   300   0.479E+00    0.526E-01
RMM:   3    -0.924454941823E+02   -0.48743E-02   -0.34370E-02   274   0.850E-01    0.342E-01
RMM:   4    -0.924448004487E+02    0.69373E-03   -0.12318E-03   288   0.170E-01    0.264E-01
RMM:   5    -0.924442673575E+02    0.53309E-03   -0.18434E-03   254   0.196E-01    0.914E-02
RMM:   6    -0.924442462341E+02    0.21123E-04   -0.28452E-04   263   0.825E-02    0.323E-02
RMM:   7    -0.924442411122E+02    0.51219E-05   -0.22070E-05   154   0.258E-02
  21 F= -.92444241E+02 E0= -.92444241E+02  d E =-.151011E-01  mag=     0.0000
       N       E                     dE             d eps       ncg     rms          rms(c)
DAV:   1    -0.924388507610E+02    0.53955E-02   -0.50467E-01   280   0.773E+00    0.290E-01
RMM:   2    -0.924444346057E+02   -0.55838E-02   -0.55509E-02   300   0.132E+00    0.144E-01
RMM:   3    -0.924448119854E+02   -0.37738E-03   -0.26217E-03   276   0.235E-01    0.943E-02
RMM:   4    -0.924447601797E+02    0.51806E-04   -0.84999E-05   238   0.472E-02    0.727E-02
RMM:   5    -0.924447263600E+02    0.33820E-04   -0.12053E-04   239   0.510E-02    0.381E-02
RMM:   6    -0.924447220220E+02    0.43379E-05   -0.36305E-05   176   0.313E-02
  22 F= -.92444722E+02 E0= -.92444722E+02  d E =-.155820E-01  mag=     0.0000
       N       E                     dE             d eps       ncg     rms          rms(c)
DAV:   1    -0.924324474661E+02    0.12279E-01   -0.22781E+00   264   0.137E+01    0.480E-01
RMM:   2    -0.924511030675E+02   -0.18656E-01   -0.19026E-01   304   0.246E+00    0.301E-01
RMM:   3    -0.924515751473E+02   -0.47208E-03   -0.74613E-03   287   0.384E-01    0.183E-01
RMM:   4    -0.924513890942E+02    0.18605E-03   -0.41034E-04   292   0.901E-02    0.133E-01
RMM:   5    -0.924512878320E+02    0.10126E-03   -0.32443E-04   245   0.848E-02    0.565E-02
RMM:   6    -0.924512771050E+02    0.10727E-04   -0.12941E-04   242   0.515E-02    0.215E-02
RMM:   7    -0.924512750234E+02    0.20816E-05   -0.10491E-05   140   0.183E-02
  23 F= -.92451275E+02 E0= -.92451275E+02  d E =-.655300E-02  mag=    -0.0000
       N       E                     dE             d eps       ncg     rms          rms(c)
DAV:   1    -0.924248169532E+02    0.26460E-01   -0.35485E+00   264   0.171E+01    0.602E-01
RMM:   2    -0.924539097070E+02   -0.29093E-01   -0.29662E-01   304   0.307E+00    0.379E-01
RMM:   3    -0.924546537748E+02   -0.74407E-03   -0.11639E-02   289   0.480E-01    0.232E-01
RMM:   4    -0.924543588196E+02    0.29496E-03   -0.63302E-04   290   0.112E-01    0.167E-01
RMM:   5    -0.924542067715E+02    0.15205E-03   -0.49911E-04   245   0.105E-01    0.702E-02
RMM:   6    -0.924541890738E+02    0.17698E-04   -0.19995E-04   249   0.630E-02    0.208E-02
RMM:   7    -0.924541866452E+02    0.24286E-05   -0.11648E-05   140   0.187E-02
  24 F= -.92454187E+02 E0= -.92454187E+02  d E =-.946462E-02  mag=    -0.0000
       N       E                     dE             d eps       ncg     rms          rms(c)
DAV:   1    -0.924462118693E+02    0.79772E-02   -0.10722E+00   296   0.121E+01    0.408E-01
RMM:   2    -0.924578337804E+02   -0.11622E-01   -0.11867E-01   300   0.190E+00    0.219E-01
RMM:   3    -0.924588245382E+02   -0.99076E-03   -0.58731E-03   268   0.349E-01    0.107E-01
RMM:   4    -0.924587406686E+02    0.83870E-04   -0.29215E-04   294   0.780E-02    0.780E-02
RMM:   5    -0.924587063571E+02    0.34312E-04   -0.10905E-04   237   0.510E-02    0.446E-02
RMM:   6    -0.924587046799E+02    0.16771E-05   -0.56963E-05   202   0.375E-02
  25 F= -.92458705E+02 E0= -.92458705E+02  d E =-.451803E-02  mag=    -0.0000
       N       E                     dE             d eps       ncg     rms          rms(c)
DAV:   1    -0.923551747750E+02    0.10353E+00   -0.96339E+00   296   0.363E+01    0.123E+00
RMM:   2    -0.924600982766E+02   -0.10492E+00   -0.10709E+00   300   0.571E+00    0.684E-01
RMM:   3    -0.924689457017E+02   -0.88474E-02   -0.52455E-02   268   0.104E+00    0.323E-01
RMM:   4    -0.924681826299E+02    0.76307E-03   -0.26914E-03   306   0.234E-01    0.236E-01
RMM:   5    -0.924678570032E+02    0.32563E-03   -0.10048E-03   256   0.155E-01    0.124E-01
RMM:   6    -0.924678685136E+02   -0.11510E-04   -0.48998E-04   253   0.108E-01    0.370E-02
RMM:   7    -0.924678660207E+02    0.24929E-05   -0.50556E-05   212   0.349E-02
  26 F= -.92467866E+02 E0= -.92467866E+02  d E =-.136794E-01  mag=    -0.0000
       N       E                     dE             d eps       ncg     rms          rms(c)
DAV:   1    -0.920165766133E+02    0.45129E+00   -0.38539E+01   296   0.726E+01    0.251E+00
RMM:   2    -0.924369802137E+02   -0.42040E+00   -0.42783E+00   300   0.114E+01    0.150E+00
RMM:   3    -0.924716495223E+02   -0.34669E-01   -0.21165E-01   270   0.207E+00    0.661E-01
RMM:   4    -0.924684229468E+02    0.32266E-02   -0.10743E-02   300   0.476E-01    0.479E-01
RMM:   5    -0.924672234407E+02    0.11995E-02   -0.40636E-03   256   0.314E-01    0.242E-01
RMM:   6    -0.924673116178E+02   -0.88177E-04   -0.17027E-03   258   0.203E-01    0.757E-02
RMM:   7    -0.924673126807E+02   -0.10630E-05   -0.22865E-04   279   0.727E-02    0.538E-02
RMM:   8    -0.924673057067E+02    0.69740E-05   -0.38475E-05   169   0.317E-02
  27 F= -.92467306E+02 E0= -.92467306E+02  d E =-.131191E-01  mag=     0.0000
       N       E                     dE             d eps       ncg     rms          rms(c)
DAV:   1    -0.923492493965E+02    0.11806E+00   -0.10572E+01   296   0.380E+01    0.127E+00
RMM:   2    -0.924624910158E+02   -0.11324E+00   -0.11525E+00   300   0.589E+00    0.664E-01
RMM:   3    -0.924718075248E+02   -0.93165E-02   -0.57773E-02   266   0.109E+00    0.343E-01
RMM:   4    -0.924709928505E+02    0.81467E-03   -0.29645E-03   305   0.248E-01    0.250E-01
RMM:   5    -0.924706980796E+02    0.29477E-03   -0.10773E-03   258   0.156E-01    0.171E-01
RMM:   6    -0.924706139489E+02    0.84131E-04   -0.77633E-04   256   0.136E-01    0.463E-02
RMM:   7    -0.924706200005E+02   -0.60516E-05   -0.10977E-04   266   0.453E-02    0.224E-02
RMM:   8    -0.924706183812E+02    0.16193E-05   -0.78673E-06   140   0.159E-02
  28 F= -.92470618E+02 E0= -.92470618E+02  d E =-.164317E-01  mag=    -0.0000
       N       E                     dE             d eps       ncg     rms          rms(c)
DAV:   1    -0.924536662584E+02    0.16954E-01   -0.10157E+00   312   0.143E+01    0.537E-01
RMM:   2    -0.924728143538E+02   -0.19148E-01   -0.19016E-01   302   0.232E+00    0.311E-01
RMM:   3    -0.924742060087E+02   -0.13917E-02   -0.93658E-03   265   0.416E-01    0.208E-01
RMM:   4    -0.924740572520E+02    0.14876E-03   -0.38257E-04   289   0.930E-02    0.163E-01
RMM:   5    -0.924739863146E+02    0.70937E-04   -0.33568E-04   255   0.980E-02    0.656E-02
RMM:   6    -0.924739832603E+02    0.30543E-05   -0.10807E-04   252   0.523E-02    0.231E-02
RMM:   7    -0.924739810410E+02    0.22193E-05   -0.64389E-06   140   0.142E-02
  29 F= -.92473981E+02 E0= -.92473981E+02  d E =-.336266E-02  mag=     0.0000
       N       E                     dE             d eps       ncg     rms          rms(c)
DAV:   1    -0.922963678919E+02    0.17762E+00   -0.91399E+00   312   0.429E+01    0.163E+00
RMM:   2    -0.924686894302E+02   -0.17232E+00   -0.17122E+00   302   0.697E+00    0.954E-01
RMM:   3    -0.924810246523E+02   -0.12335E-01   -0.82832E-02   272   0.125E+00    0.624E-01
RMM:   4    -0.924798090712E+02    0.12156E-02   -0.34880E-03   305   0.277E-01    0.484E-01
RMM:   5    -0.924792698555E+02    0.53922E-03   -0.29733E-03   256   0.295E-01    0.203E-01
RMM:   6    -0.924792209327E+02    0.48923E-04   -0.98409E-04   273   0.158E-01    0.778E-02
RMM:   7    -0.924791975274E+02    0.23405E-04   -0.81357E-05   225   0.437E-02    0.446E-02
RMM:   8    -0.924791864160E+02    0.11111E-04   -0.20411E-05   145   0.264E-02    0.342E-02
RMM:   9    -0.924791781668E+02    0.82492E-05   -0.14199E-05   141   0.245E-02
  30 F= -.92479178E+02 E0= -.92479178E+02  d E =-.855979E-02  mag=    -0.0000
       N       E                     dE             d eps       ncg     rms          rms(c)
DAV:   1    -0.924506439684E+02    0.28542E-01   -0.14193E+00   312   0.180E+01    0.659E-01
RMM:   2    -0.924814082588E+02   -0.30764E-01   -0.30460E-01   302   0.284E+00    0.315E-01
RMM:   3    -0.924835813403E+02   -0.21731E-02   -0.16103E-02   268   0.514E-01    0.200E-01
RMM:   4    -0.924834076840E+02    0.17366E-03   -0.53354E-04   312   0.105E-01    0.163E-01
RMM:   5    -0.924832557832E+02    0.15190E-03   -0.22397E-04   258   0.858E-02    0.738E-02
RMM:   6    -0.924832482899E+02    0.74933E-05   -0.11063E-04   226   0.567E-02    0.224E-02
RMM:   7    -0.924832477637E+02    0.52622E-06   -0.15311E-05   144   0.227E-02
  31 F= -.92483248E+02 E0= -.92483248E+02  d E =-.406960E-02  mag=     0.0000
       N       E                     dE             d eps       ncg     rms          rms(c)
DAV:   1    -0.921991975437E+02    0.28405E+00   -0.12763E+01   312   0.541E+01    0.201E+00
RMM:   2    -0.924769939876E+02   -0.27780E+00   -0.27510E+00   302   0.854E+00    0.105E+00
RMM:   3    -0.924963276829E+02   -0.19334E-01   -0.14534E-01   270   0.156E+00    0.607E-01
RMM:   4    -0.924947060657E+02    0.16216E-02   -0.54983E-03   319   0.325E-01    0.490E-01
RMM:   5    -0.924934911789E+02    0.12149E-02   -0.17711E-03   262   0.233E-01    0.253E-01
RMM:   6    -0.924933695299E+02    0.12165E-03   -0.11079E-03   262   0.181E-01    0.747E-02
RMM:   7    -0.924933715159E+02   -0.19860E-05   -0.20608E-04   265   0.691E-02    0.455E-02
RMM:   8    -0.924933667180E+02    0.47979E-05   -0.21998E-05   151   0.256E-02
  32 F= -.92493367E+02 E0= -.92493367E+02  d E =-.141886E-01  mag=    -0.0000
       N       E                     dE             d eps       ncg     rms          rms(c)
DAV:   1    -0.913165491654E+02    0.11768E+01   -0.51054E+01   312   0.108E+02    0.421E+00
RMM:   2    -0.924409856525E+02   -0.11244E+01   -0.11140E+01   302   0.172E+01    0.259E+00
RMM:   3    -0.925142333821E+02   -0.73248E-01   -0.57908E-01   269   0.319E+00    0.125E+00
RMM:   4    -0.925086057096E+02    0.56277E-02   -0.36003E-02   320   0.775E-01    0.102E+00
RMM:   5    -0.925048286404E+02    0.37771E-02   -0.50393E-03   266   0.389E-01    0.633E-01
RMM:   6    -0.925037070414E+02    0.11216E-02   -0.57889E-03   255   0.416E-01    0.155E-01
RMM:   7    -0.925037366618E+02   -0.29620E-04   -0.10230E-03   293   0.152E-01    0.910E-02
RMM:   8    -0.925037244208E+02    0.12241E-04   -0.12980E-04   247   0.549E-02    0.614E-02
RMM:   9    -0.925037145041E+02    0.99167E-05   -0.44355E-05   183   0.366E-02
  33 F= -.92503715E+02 E0= -.92503715E+02  d E =-.245363E-01  mag=     0.0000
       N       E                     dE             d eps       ncg     rms          rms(c)
DAV:   1    -0.924814935519E+02    0.22231E-01   -0.13829E+00   328   0.159E+01    0.578E-01
RMM:   2    -0.925065161290E+02   -0.25023E-01   -0.24898E-01   302   0.258E+00    0.295E-01
RMM:   3    -0.925073323011E+02   -0.81617E-03   -0.11474E-02   274   0.456E-01    0.185E-01
RMM:   4    -0.925071952225E+02    0.13708E-03   -0.44166E-04   307   0.951E-02    0.144E-01
RMM:   5    -0.925070957138E+02    0.99509E-04   -0.14661E-04   245   0.675E-02    0.792E-02
RMM:   6    -0.925070805262E+02    0.15188E-04   -0.12223E-04   244   0.599E-02    0.279E-02
RMM:   7    -0.925070793629E+02    0.11633E-05   -0.17721E-05   144   0.236E-02
  34 F= -.92507079E+02 E0= -.92507079E+02  d E =-.336486E-02  mag=     0.0000
       N       E                     dE             d eps       ncg     rms          rms(c)
DAV:   1    -0.922822161434E+02    0.22486E+00   -0.12447E+01   328   0.477E+01    0.177E+00
RMM:   2    -0.925082720334E+02   -0.22606E+00   -0.22504E+00   302   0.778E+00    0.962E-01
RMM:   3    -0.925156529397E+02   -0.73809E-02   -0.10440E-01   274   0.138E+00    0.563E-01
RMM:   4    -0.925143682942E+02    0.12846E-02   -0.41875E-03   310   0.297E-01    0.438E-01
RMM:   5    -0.925135123979E+02    0.85590E-03   -0.12986E-03   253   0.199E-01    0.245E-01
RMM:   6    -0.925133624844E+02    0.14991E-03   -0.10967E-03   259   0.180E-01    0.889E-02
RMM:   7    -0.925133582936E+02    0.41908E-05   -0.22722E-04   279   0.726E-02    0.398E-02
RMM:   8    -0.925133531917E+02    0.51019E-05   -0.20239E-05   149   0.245E-02
  35 F= -.92513353E+02 E0= -.92513353E+02  d E =-.963869E-02  mag=     0.0000
       N       E                     dE             d eps       ncg     rms          rms(c)
DAV:   1    -0.915623087412E+02    0.95105E+00   -0.49646E+01   328   0.954E+01    0.368E+00
RMM:   2    -0.924988667086E+02   -0.93656E+00   -0.93335E+00   300   0.158E+01    0.223E+00
RMM:   3    -0.925172037349E+02   -0.18337E-01   -0.43622E-01   278   0.288E+00    0.117E+00
RMM:   4    -0.925118664971E+02    0.53372E-02   -0.19199E-02   314   0.626E-01    0.914E-01
RMM:   5    -0.925085651820E+02    0.33013E-02   -0.52272E-03   252   0.391E-01    0.507E-01
RMM:   6    -0.925078647221E+02    0.70046E-03   -0.40840E-03   263   0.349E-01    0.178E-01
RMM:   7    -0.925078664937E+02   -0.17716E-05   -0.87104E-04   289   0.145E-01    0.769E-02
RMM:   8    -0.925078581718E+02    0.83220E-05   -0.10484E-04   238   0.508E-02    0.545E-02
RMM:   9    -0.925078508570E+02    0.73147E-05   -0.30021E-05   155   0.311E-02
  36 F= -.92507851E+02 E0= -.92507851E+02  d E =-.413635E-02  mag=     0.0000
       N       E                     dE             d eps       ncg     rms          rms(c)
DAV:   1    -0.919828141761E+02    0.52504E+00   -0.28271E+01   328   0.720E+01    0.267E+00
RMM:   2    -0.924923478145E+02   -0.50953E+00   -0.50719E+00   304   0.118E+01    0.145E+00
RMM:   3    -0.925193017583E+02   -0.26954E-01   -0.23202E-01   268   0.203E+00    0.846E-01
RMM:   4    -0.925166303866E+02    0.26714E-02   -0.11058E-02   319   0.462E-01    0.662E-01
RMM:   5    -0.925147710147E+02    0.18594E-02   -0.27723E-03   259   0.281E-01    0.386E-01
RMM:   6    -0.925144086324E+02    0.36238E-03   -0.30127E-03   256   0.295E-01    0.197E-01
RMM:   7    -0.925142847400E+02    0.12389E-03   -0.72734E-04   281   0.136E-01    0.509E-02
RMM:   8    -0.925142814268E+02    0.33132E-05   -0.50270E-05   205   0.351E-02
  37 F= -.92514281E+02 E0= -.92514281E+02  d E =-.105669E-01  mag=     0.0000
       N       E                     dE             d eps       ncg     rms          rms(c)
DAV:   1    -0.924627482013E+02    0.51537E-01   -0.47201E+00   264   0.234E+01    0.815E-01
RMM:   2    -0.925171729259E+02   -0.54425E-01   -0.54526E-01   304   0.398E+00    0.430E-01
RMM:   3    -0.925195428907E+02   -0.23700E-02   -0.23464E-02   278   0.659E-01    0.268E-01
RMM:   4    -0.925191967669E+02    0.34612E-03   -0.10858E-03   318   0.146E-01    0.211E-01
RMM:   5    -0.925189466460E+02    0.25012E-03   -0.46530E-04   253   0.109E-01    0.117E-01
RMM:   6    -0.925189155064E+02    0.31140E-04   -0.34526E-04   254   0.953E-02    0.556E-02
RMM:   7    -0.925189057111E+02    0.97953E-05   -0.63970E-05   221   0.407E-02
  38 F= -.92518906E+02 E0= -.92518906E+02  d E =-.462428E-02  mag=     0.0000
       N       E                     dE             d eps       ncg     rms          rms(c)
DAV:   1    -0.920204630812E+02    0.49845E+00   -0.42425E+01   264   0.700E+01    0.253E+00
RMM:   2    -0.925134947414E+02   -0.49303E+00   -0.49450E+00   304   0.120E+01    0.145E+00
RMM:   3    -0.925355422609E+02   -0.22048E-01   -0.21455E-01   283   0.201E+00    0.819E-01
RMM:   4    -0.925323861653E+02    0.31561E-02   -0.96660E-03   322   0.444E-01    0.643E-01
RMM:   5    -0.925302813265E+02    0.21048E-02   -0.38659E-03   248   0.320E-01    0.333E-01
RMM:   6    -0.925300740677E+02    0.20726E-03   -0.28720E-03   256   0.274E-01    0.167E-01
RMM:   7    -0.925299865836E+02    0.87484E-04   -0.54959E-04   288   0.117E-01    0.534E-02
RMM:   8    -0.925299861853E+02    0.39829E-06   -0.46510E-05   202   0.321E-02
  39 F= -.92529986E+02 E0= -.92529986E+02  d E =-.157048E-01  mag=     0.0000
       N       E                     dE             d eps       ncg     rms          rms(c)
DAV:   1    -0.904454089900E+02    0.20846E+01   -0.16905E+02   264   0.140E+02    0.542E+00
RMM:   2    -0.924559263314E+02   -0.20105E+01   -0.20192E+01   302   0.244E+01    0.357E+00
RMM:   3    -0.925598963270E+02   -0.10397E+00   -0.10028E+00   292   0.434E+00    0.181E+00
RMM:   4    -0.925461913916E+02    0.13705E-01   -0.43076E-02   314   0.926E-01    0.143E+00
RMM:   5    -0.925379360943E+02    0.82553E-02   -0.13744E-02   254   0.620E-01    0.792E-01
RMM:   6    -0.925363029531E+02    0.16331E-02   -0.12778E-02   250   0.577E-01    0.264E-01
RMM:   7    -0.925361306737E+02    0.17228E-03   -0.21533E-03   293   0.226E-01    0.127E-01
RMM:   8    -0.925361012537E+02    0.29420E-04   -0.20764E-04   272   0.694E-02    0.643E-02
RMM:   9    -0.925360971630E+02    0.40907E-05   -0.84142E-05   230   0.496E-02
  40 F= -.92536097E+02 E0= -.92536097E+02  d E =-.218157E-01  mag=     0.0000
       N       E                     dE             d eps       ncg     rms          rms(c)
DAV:   1    -0.922577521240E+02    0.27835E+00   -0.28346E+01   296   0.568E+01    0.188E+00
RMM:   2    -0.925335076570E+02   -0.27576E+00   -0.28025E+00   303   0.919E+00    0.118E+00
RMM:   3    -0.925462514453E+02   -0.12744E-01   -0.10235E-01   270   0.158E+00    0.580E-01
RMM:   4    -0.925444455430E+02    0.18059E-02   -0.85647E-03   301   0.423E-01    0.438E-01
RMM:   5    -0.925437858443E+02    0.65970E-03   -0.41078E-03   257   0.304E-01    0.328E-01
RMM:   6    -0.925435104731E+02    0.27537E-03   -0.21308E-03   259   0.218E-01    0.816E-02
RMM:   7    -0.925434974585E+02    0.13015E-04   -0.28303E-04   304   0.755E-02    0.440E-02
RMM:   8    -0.925434862722E+02    0.11186E-04   -0.31872E-05   173   0.277E-02    0.268E-02
RMM:   9    -0.925434833213E+02    0.29508E-05   -0.14526E-05   140   0.232E-02
  41 F= -.92543483E+02 E0= -.92543483E+02  d E =-.738616E-02  mag=    -0.0000
       N       E                     dE             d eps       ncg     rms          rms(c)
DAV:   1    -0.925399005259E+02    0.35857E-02   -0.32055E-01   264   0.610E+00    0.215E-01
RMM:   2    -0.925434057818E+02   -0.35053E-02   -0.35411E-02   303   0.103E+00    0.112E-01
RMM:   3    -0.925436004946E+02   -0.19471E-03   -0.17285E-03   278   0.187E-01    0.725E-02
RMM:   4    -0.925435744910E+02    0.26004E-04   -0.73866E-05   223   0.416E-02    0.578E-02
RMM:   5    -0.925435614473E+02    0.13044E-04   -0.27015E-05   154   0.300E-02    0.426E-02
RMM:   6    -0.925435556233E+02    0.58240E-05   -0.34311E-05   168   0.320E-02
  42 F= -.92543556E+02 E0= -.92543556E+02  d E =-.745846E-02  mag=     0.0000
       N       E                     dE             d eps       ncg     rms          rms(c)
DAV:   1    -0.925361468493E+02    0.74146E-02   -0.97216E-01   260   0.993E+00    0.424E-01
RMM:   2    -0.925460456079E+02   -0.98988E-02   -0.10147E-01   305   0.176E+00    0.377E-01
RMM:   3    -0.925463300250E+02   -0.28442E-03   -0.39949E-03   272   0.282E-01    0.269E-01
RMM:   4    -0.925462426455E+02    0.87379E-04   -0.51189E-04   265   0.107E-01    0.220E-01
RMM:   5    -0.925461486007E+02    0.94045E-04   -0.60043E-04   250   0.117E-01    0.939E-02
RMM:   6    -0.925461489700E+02   -0.36924E-06   -0.11758E-04   252   0.569E-02    0.308E-02
RMM:   7    -0.925461419635E+02    0.70064E-05   -0.13236E-05   139   0.219E-02
  43 F= -.92546142E+02 E0= -.92546142E+02  d E =-.258634E-02  mag=     0.0000
       N       E                     dE             d eps       ncg     rms          rms(c)
DAV:   1    -0.925455475282E+02    0.60144E-03   -0.73973E-02   260   0.273E+00    0.121E-01
RMM:   2    -0.925463015097E+02   -0.75398E-03   -0.77873E-03   304   0.491E-01    0.104E-01
RMM:   3    -0.925463267993E+02   -0.25290E-04   -0.31578E-04   267   0.803E-02    0.731E-02
RMM:   4    -0.925463212442E+02    0.55551E-05   -0.35539E-05   169   0.306E-02
  44 F= -.92546321E+02 E0= -.92546321E+02  d E =-.276562E-02  mag=     0.0000
       N       E                     dE             d eps       ncg     rms          rms(c)
DAV:   1    -0.925462389353E+02    0.87864E-04   -0.79766E-03   264   0.933E-01    0.482E-02
RMM:   2    -0.925463255844E+02   -0.86649E-04   -0.87828E-04   303   0.163E-01    0.468E-02
RMM:   3    -0.925463230213E+02    0.25631E-05   -0.40376E-05   171   0.331E-02
  45 F= -.92546323E+02 E0= -.92546323E+02  d E =-.276740E-02  mag=     0.0000
       N       E                     dE             d eps       ncg     rms          rms(c)
DAV:   1    -0.925424634276E+02    0.38622E-02   -0.29657E-01   328   0.747E+00    0.280E-01
RMM:   2    -0.925468847322E+02   -0.44213E-02   -0.44916E-02   300   0.116E+00    0.193E-01
RMM:   3    -0.925471507868E+02   -0.26605E-03   -0.19311E-03   256   0.217E-01    0.120E-01
RMM:   4    -0.925471109320E+02    0.39855E-04   -0.15912E-04   262   0.657E-02    0.945E-02
RMM:   5    -0.925470917618E+02    0.19170E-04   -0.12899E-04   234   0.536E-02    0.520E-02
RMM:   6    -0.925470923065E+02   -0.54469E-06   -0.38432E-05   177   0.337E-02
  46 F= -.92547092E+02 E0= -.92547092E+02  d E =-.769285E-03  mag=    -0.0000
       N       E                     dE             d eps       ncg     rms          rms(c)
DAV:   1    -0.925451204053E+02    0.19714E-02   -0.13192E-01   328   0.498E+00    0.188E-01
RMM:   2    -0.925470893582E+02   -0.19690E-02   -0.20083E-02   300   0.779E-01    0.127E-01
RMM:   3    -0.925472125083E+02   -0.12315E-03   -0.86303E-04   256   0.145E-01    0.769E-02
RMM:   4    -0.925471971736E+02    0.15335E-04   -0.72744E-05   238   0.451E-02    0.617E-02
RMM:   5    -0.925471893937E+02    0.77799E-05   -0.44777E-05   176   0.344E-02
  47 F= -.92547189E+02 E0= -.92547189E+02  d E =-.866372E-03  mag=    -0.0000
       N       E                     dE             d eps       ncg     rms          rms(c)
DAV:   1    -0.925443764652E+02    0.28207E-02   -0.31351E-01   264   0.596E+00    0.218E-01
RMM:   2    -0.925477324140E+02   -0.33559E-02   -0.34069E-02   302   0.104E+00    0.125E-01
RMM:   3    -0.925479023202E+02   -0.16991E-03   -0.15050E-03   276   0.183E-01    0.780E-02
RMM:   4    -0.925478715255E+02    0.30795E-04   -0.64863E-05   223   0.413E-02    0.600E-02
RMM:   5    -0.925478513336E+02    0.20192E-04   -0.46656E-05   205   0.332E-02    0.340E-02
RMM:   6    -0.925478483248E+02    0.30088E-05   -0.30801E-05   158   0.292E-02
  48 F= -.92547848E+02 E0= -.92547848E+02  d E =-.658931E-03  mag=    -0.0000
       N       E                     dE             d eps       ncg     rms          rms(c)
DAV:   1    -0.925399232192E+02    0.79281E-02   -0.79780E-01   280   0.945E+00    0.333E-01
RMM:   2    -0.925479663664E+02   -0.80431E-02   -0.81707E-02   302   0.161E+00    0.201E-01
RMM:   3    -0.925483427390E+02   -0.37637E-03   -0.31421E-03   272   0.274E-01    0.117E-01
RMM:   4    -0.925482666286E+02    0.76110E-04   -0.20352E-04   277   0.705E-02    0.889E-02
RMM:   5    -0.925482274046E+02    0.39224E-04   -0.14544E-04   235   0.541E-02    0.590E-02
RMM:   6    -0.925482167553E+02    0.10649E-04   -0.89100E-05   230   0.455E-02    0.209E-02
RMM:   7    -0.925482148301E+02    0.19252E-05   -0.93773E-06   140   0.172E-02
  49 F= -.92548215E+02 E0= -.92548215E+02  d E =-.102544E-02  mag=     0.0000
       N       E                     dE             d eps       ncg     rms          rms(c)
DAV:   1    -0.925425956872E+02    0.56211E-02   -0.33382E-01   328   0.787E+00    0.311E-01
RMM:   2    -0.925483057956E+02   -0.57101E-02   -0.58593E-02   300   0.131E+00    0.201E-01
RMM:   3    -0.925486683300E+02   -0.36253E-03   -0.34343E-03   271   0.265E-01    0.135E-01
RMM:   4    -0.925486190518E+02    0.49278E-04   -0.18205E-04   268   0.675E-02    0.106E-01
RMM:   5    -0.925485909108E+02    0.28141E-04   -0.61423E-05   201   0.425E-02    0.643E-02
RMM:   6    -0.925485937334E+02   -0.28226E-05   -0.44343E-05   176   0.364E-02
  50 F= -.92548594E+02 E0= -.92548594E+02  d E =-.378903E-03  mag=     0.0000
       N       E                     dE             d eps       ncg     rms          rms(c)
DAV:   1    -0.925485854193E+02    0.54914E-05   -0.82659E-04   368   0.386E-01    0.128E-02
RMM:   2    -0.925485967018E+02   -0.11282E-04   -0.12208E-04   278   0.619E-02    0.112E-02
RMM:   3    -0.925485970165E+02   -0.31472E-06   -0.47908E-06   130   0.135E-02
  51 F= -.92548597E+02 E0= -.92548597E+02  d E =-.382186E-03  mag=     0.0000
       N       E                     dE             d eps       ncg     rms          rms(c)
DAV:   1    -0.925483837663E+02    0.21294E-03   -0.42295E-02   264   0.175E+00    0.732E-02
RMM:   2    -0.925486785868E+02   -0.29482E-03   -0.30231E-03   301   0.318E-01    0.405E-02
RMM:   3    -0.925486893738E+02   -0.10787E-04   -0.14526E-04   240   0.590E-02    0.272E-02
RMM:   4    -0.925486860964E+02    0.32774E-05   -0.77840E-06   140   0.162E-02
  52 F= -.92548686E+02 E0= -.92548686E+02  d E =-.890799E-04  mag=     0.0000
