 vasp.5.4.4.18Apr17-6-g9f103f2a35 (build Nov 08 2022 17:27:33) complex          
  
 executed on             LinuxIFC date 2022.11.22  17:13:32
 running on   16 total cores
 distrk:  each k-point on   16 cores,    1 groups
 distr:  one band on NCORES_PER_BAND=   4 cores,    4 groups


--------------------------------------------------------------------------------------------------------


 INCAR:
 POTCAR:    PAW_PBE Mn_pv 02Aug2007               
 POTCAR:    PAW_PBE O 08Apr2002                   
 POTCAR:    PAW_PBE Mn_pv 02Aug2007               
   VRHFIN =Mn: 3p4s3d                                                           
   LEXCH  = PE                                                                  
   EATOM  =  2025.2664 eV,  148.8529 Ry                                         
                                                                                
   TITEL  = PAW_PBE Mn_pv 02Aug2007                                             
   LULTRA =        F    use ultrasoft PP ?                                      
   IUNSCR =        1    unscreen: 0-lin 1-nonlin 2-no                           
   RPACOR =    2.080    partial core radius                                     
   POMASS =   54.938; ZVAL   =   13.000    mass and valenz                      
   RCORE  =    2.300    outmost cutoff radius                                   
   RWIGS  =    2.500; RWIGS  =    1.323    wigner-seitz radius (au A)           
   ENMAX  =  269.864; ENMIN  =  202.398 eV                                      
   ICORE  =        3    local potential                                         
   LCOR   =        T    correct aug charges                                     
   LPAW   =        T    paw PP                                                  
   EAUG   =  569.085                                                            
   DEXC   =    0.000                                                            
   RMAX   =    2.343    core radius for proj-oper                               
   RAUG   =    1.300    factor for augmentation sphere                          
   RDEP   =    2.338    radius for radial grids                                 
   RDEPT  =    1.798    core radius for aug-charge                              
                                                                                
   Atomic configuration                                                         
    8 entries                                                                   
     n  l   j            E        occ.                                          
     1  0  0.50     -6424.8287   2.0000                                         
     2  0  0.50      -739.1154   2.0000                                         
     2  1  1.50      -625.3949   6.0000                                         
     3  0  0.50       -81.6100   2.0000                                         
     3  1  1.50       -50.4667   6.0000                                         
     3  2  2.50        -3.3745   6.0000                                         
     4  0  0.50        -4.1331   1.0000                                         
     4  3  2.50        -1.3606   0.0000                                         
   Description                                                                  
     l       E           TYP  RCUT    TYP  RCUT                                 
     1    -50.4666628     23  2.000                                             
     1     -1.3605826     23  2.000                                             
     2     -3.3744729     23  2.300                                             
     2     -4.7350555     23  2.300                                             
     0     -4.1331431     23  2.300                                             
     0      7.6656591     23  2.300                                             
     3      9.5240782     23  2.300                                             
  local pseudopotential read in
  partial core-charges read in
  partial kinetic energy density read in
  atomic valenz-charges read in
  non local Contribution for L=           1  read in
    real space projection operators read in
  non local Contribution for L=           1  read in
    real space projection operators read in
  non local Contribution for L=           2  read in
    real space projection operators read in
  non local Contribution for L=           2  read in
    real space projection operators read in
  non local Contribution for L=           0  read in
    real space projection operators read in
  non local Contribution for L=           0  read in
    real space projection operators read in
    PAW grid and wavefunctions read in
 
   number of l-projection  operators is LMAX  =           6
   number of lm-projection operators is LMMAX =          18
 
 POTCAR:    PAW_PBE O 08Apr2002                   
   VRHFIN =O: s2p4                                                              
   LEXCH  = PE                                                                  
   EATOM  =   432.3788 eV,   31.7789 Ry                                         
                                                                                
   TITEL  = PAW_PBE O 08Apr2002                                                 
   LULTRA =        F    use ultrasoft PP ?                                      
   IUNSCR =        1    unscreen: 0-lin 1-nonlin 2-no                           
   RPACOR =    1.200    partial core radius                                     
   POMASS =   16.000; ZVAL   =    6.000    mass and valenz                      
   RCORE  =    1.520    outmost cutoff radius                                   
   RWIGS  =    1.550; RWIGS  =    0.820    wigner-seitz radius (au A)           
   ENMAX  =  400.000; ENMIN  =  300.000 eV                                      
   ICORE  =        2    local potential                                         
   LCOR   =        T    correct aug charges                                     
   LPAW   =        T    paw PP                                                  
   EAUG   =  605.392                                                            
   DEXC   =    0.000                                                            
   RMAX   =    1.553    core radius for proj-oper                               
   RAUG   =    1.300    factor for augmentation sphere                          
   RDEP   =    1.550    radius for radial grids                                 
   RDEPT  =    1.329    core radius for aug-charge                              
                                                                                
   Atomic configuration                                                         
    4 entries                                                                   
     n  l   j            E        occ.                                          
     1  0  0.50      -514.6923   2.0000                                         
     2  0  0.50       -23.9615   2.0000                                         
     2  1  0.50        -9.0305   4.0000                                         
     3  2  1.50        -9.5241   0.0000                                         
   Description                                                                  
     l       E           TYP  RCUT    TYP  RCUT                                 
     0    -23.9615318     23  1.200                                             
     0     -9.5240782     23  1.200                                             
     1     -9.0304911     23  1.520                                             
     1      8.1634956     23  1.520                                             
     2     -9.5240782      7  1.500                                             
  local pseudopotential read in
  partial core-charges read in
  partial kinetic energy density read in
  kinetic energy density of atom read in
  atomic valenz-charges read in
  non local Contribution for L=           0  read in
    real space projection operators read in
  non local Contribution for L=           0  read in
    real space projection operators read in
  non local Contribution for L=           1  read in
    real space projection operators read in
  non local Contribution for L=           1  read in
    real space projection operators read in
    PAW grid and wavefunctions read in
 
   number of l-projection  operators is LMAX  =           4
   number of lm-projection operators is LMMAX =           8
 
 Optimization of the real space projectors (new method)

 maximal supplied QI-value         = 16.25
 optimisation between [QCUT,QGAM] = [ 10.24, 20.48] = [ 29.35,117.42] Ry 
 Optimized for a Real-space Cutoff    1.46 Angstroem

   l    n(q)    QCUT    max X(q) W(low)/X(q) W(high)/X(q)  e(spline) 
   1      8    10.239     3.658    0.66E-04    0.10E-03    0.11E-06
   1      8    10.239     5.612    0.11E-03    0.22E-03    0.22E-06
   2      8    10.239    55.373    0.13E-03    0.13E-03    0.98E-07
   2      8    10.239    50.863    0.13E-03    0.13E-03    0.10E-06
   0      9    10.239    79.536    0.48E-04    0.67E-04    0.69E-07
   0      9    10.239    38.668    0.40E-04    0.61E-04    0.64E-07
 Optimization of the real space projectors (new method)

 maximal supplied QI-value         = 24.76
 optimisation between [QCUT,QGAM] = [ 10.15, 20.30] = [ 28.85,115.39] Ry 
 Optimized for a Real-space Cutoff    1.51 Angstroem

   l    n(q)    QCUT    max X(q) W(low)/X(q) W(high)/X(q)  e(spline) 
   0      9    10.150    20.381    0.17E-03    0.18E-03    0.41E-06
   0      9    10.150    15.268    0.18E-03    0.20E-03    0.43E-06
   1      9    10.150     5.964    0.16E-03    0.20E-03    0.36E-06
   1      9    10.150     5.382    0.13E-03    0.16E-03    0.33E-06
  PAW_PBE Mn_pv 02Aug2007               :
 energy of atom  1       EATOM=-2025.2664
 kinetic energy error for atom=    0.0284 (will be added to EATOM!!)
  PAW_PBE O 08Apr2002                   :
 energy of atom  2       EATOM= -432.3788
 kinetic energy error for atom=    0.1156 (will be added to EATOM!!)
 
 
 POSCAR: Mn4 O8                                  
  positions in direct lattice
  No initial velocities read in
 exchange correlation table for  LEXCH =        8
   RHO(1)=    0.500       N(1)  =     2000
   RHO(2)=  100.500       N(2)  =     4000

 VTST: version 3.2, (02/03/18)

 CHAIN: initializing optimizer
 
 OPT: Using VASP Conjugate-Gradient optimizer
 CHAIN: Read ICHAIN            0
 
 POSCAR: Mn4 O8                                  
  positions in direct lattice
  No initial velocities read in
 


--------------------------------------------------------------------------------------------------------


 ion  position               nearest neighbor table
   1  0.250  0.021  0.865-  12 1.91  12 1.91  10 1.92   6 1.94   6 1.94   7 1.94   2 2.94   2 2.94

   2  0.750  0.979  0.135-   9 1.91   9 1.91  11 1.92   7 1.94   7 1.94   6 1.94   1 2.94   1 2.94

   3  0.750  0.521  0.635-  10 1.91  10 1.91  12 1.92   5 1.94   5 1.94   8 1.94   4 2.94   4 2.94

   4  0.250  0.479  0.365-  11 1.91  11 1.91   9 1.92   8 1.94   8 1.94   5 1.94   3 2.94   3 2.94

   5  0.250  0.712  0.537-   3 1.94   3 1.94   4 1.94
   6  0.750  0.212  0.963-   1 1.94   1 1.94   2 1.94
   7  0.250  0.788  0.037-   2 1.94   2 1.94   1 1.94
   8  0.750  0.288  0.463-   4 1.94   4 1.94   3 1.94
   9  0.250  0.191  0.216-   2 1.91   2 1.91   4 1.92
  10  0.250  0.309  0.716-   3 1.91   3 1.91   1 1.92
  11  0.750  0.691  0.284-   4 1.91   4 1.91   2 1.92
  12  0.750  0.809  0.784-   1 1.91   1 1.91   3 1.92
 

IMPORTANT INFORMATION: All symmetrisations will be switched off!
NOSYMM: (Re-)initialisation of all symmetry stuff for point group C_1.

 
 
 KPOINTS: Default gamma                           

Automatic generation of k-mesh.
Space group operators:
 irot       det(A)        alpha          n_x          n_y          n_z        tau_x        tau_y        tau_z
    1     1.000000     0.000000     1.000000     0.000000     0.000000     0.000000     0.000000     0.000000
 
 Subroutine IBZKPT returns following result:
 ===========================================
 
 Found      1 irreducible k-points:
 
 Following reciprocal coordinates:
            Coordinates               Weight
  0.000000  0.000000  0.000000      1.000000
 
 Following cartesian coordinates:
            Coordinates               Weight
  0.000000  0.000000  0.000000      1.000000
 


--------------------------------------------------------------------------------------------------------




 Dimension of arrays:
   k-points           NKPTS =      1   k-points in BZ     NKDIM =      1   number of bands    NBANDS=     60
   number of dos      NEDOS =    301   number of ions     NIONS =     12
   non local maximal  LDIM  =      6   non local SUM 2l+1 LMDIM =     18
   total plane-waves  NPLWV =  38400
   max r-space proj   IRMAX =   4431   max aug-charges    IRDMAX=   9443
   dimension x,y,z NGX =    20 NGY =   30 NGZ =   64
   dimension x,y,z NGXF=    40 NGYF=   60 NGZF=  128
   support grid    NGXF=    40 NGYF=   60 NGZF=  128
   ions per type =               4   8
   NGX,Y,Z   is equivalent  to a cutoff of  11.40, 10.89, 11.28 a.u.
   NGXF,Y,Z  is equivalent  to a cutoff of  22.80, 21.77, 22.56 a.u.

 SYSTEM =  unknown system                          
 POSCAR =  Mn4 O8                                  

 Startparameter for this run:
   NWRITE =      2    write-flag & timer
   PREC   = accura    normal or accurate (medium, high low for compatibility)
   ISTART =      0    job   : 0-new  1-cont  2-samecut
   ICHARG =      2    charge: 1-file 2-atom 10-const
   ISPIN  =      2    spin polarized calculation?
   LNONCOLLINEAR =      F non collinear calculations
   LSORBIT =      F    spin-orbit coupling
   INIWAV =      1    electr: 0-lowe 1-rand  2-diag
   LASPH  =      T    aspherical Exc in radial PAW
   METAGGA=      F    non-selfconsistent MetaGGA calc.

 Electronic Relaxation 1
   ENCUT  =  400.0 eV  29.40 Ry    5.42 a.u.   4.76  7.47 15.39*2*pi/ulx,y,z
   ENINI  =  400.0     initial cutoff
   ENAUG  =  800.0 eV  augmentation charge cutoff
   NELM   =     40;   NELMIN=  2; NELMDL= -5     # of ELM steps 
   EDIFF  = 0.1E-04   stopping-criterion for ELM
   LREAL  =      T    real-space projection
   NLSPLINE    = F    spline interpolate recip. space projectors
   LCOMPAT=      F    compatible to vasp.4.4
   GGA_COMPAT  = T    GGA compatible to vasp.4.4-vasp.4.6
   LMAXPAW     = -100 max onsite density
   LMAXMIX     =    4 max onsite mixed and CHGCAR
   VOSKOWN=      0    Vosko Wilk Nusair interpolation
   ROPT   =   -0.00025  -0.00025
 Ionic relaxation
   EDIFFG = -.3E-01   stopping-criterion for IOM
   NSW    =    199    number of steps for IOM
   NBLOCK =      1;   KBLOCK =    199    inner block; outer block 
   IBRION =      2    ionic relax: 0-MD 1-quasi-New 2-CG
   NFREE  =      1    steps in history (QN), initial steepest desc. (CG)
   ISIF   =      2    stress and relaxation
   IWAVPR =     11    prediction:  0-non 1-charg 2-wave 3-comb
   ISYM   =      0    0-nonsym 1-usesym 2-fastsym
   LCORR  =      T    Harris-Foulkes like correction to forces

   POTIM  = 0.5000    time-step for ionic-motion
   TEIN   =    0.0    initial temperature
   TEBEG  =    0.0;   TEEND  =   0.0 temperature during run
   SMASS  =  -3.00    Nose mass-parameter (am)
   estimated Nose-frequenzy (Omega)   =  0.10E-29 period in steps =****** mass=  -0.194E-27a.u.
   SCALEE = 1.0000    scale energy and forces
   NPACO  =    256;   APACO  = 16.0  distance and # of slots for P.C.
   PSTRESS=    0.0 pullay stress

  Mass of Ions in am
   POMASS =  54.94 16.00
  Ionic Valenz
   ZVAL   =  13.00  6.00
  Atomic Wigner-Seitz radii
   RWIGS  =  -1.00 -1.00
  virtual crystal weights 
   VCA    =   1.00  1.00
   NELECT =     100.0000    total number of electrons
   NUPDOWN=      -1.0000    fix difference up-down

 DOS related values:
   EMIN   =  10.00;   EMAX   =-10.00  energy-range for DOS
   EFERMI =   0.00
   ISMEAR =     0;   SIGMA  =   0.01  broadening in eV -4-tet -1-fermi 0-gaus

 Electronic relaxation 2 (details)
   IALGO  =     68    algorithm
   LDIAG  =      T    sub-space diagonalisation (order eigenvalues)
   LSUBROT=      F    optimize rotation matrix (better conditioning)
   TURBO    =      0    0=normal 1=particle mesh
   IRESTART =      0    0=no restart 2=restart with 2 vectors
   NREBOOT  =      0    no. of reboots
   NMIN     =      0    reboot dimension
   EREF     =   0.00    reference energy to select bands
   IMIX   =      4    mixing-type and parameters
     AMIX     =   0.40;   BMIX     =  1.00
     AMIX_MAG =   1.60;   BMIX_MAG =  1.00
     AMIN     =   0.10
     WC   =   100.;   INIMIX=   1;  MIXPRE=   1;  MAXMIX= -45

 Intra band minimization:
   WEIMIN = 0.0010     energy-eigenvalue tresh-hold
   EBREAK =  0.42E-07  absolut break condition
   DEPER  =   0.30     relativ break condition  

   TIME   =   0.40     timestep for ELM

  volume/ion in A,a.u.               =      10.50        70.88
  Fermi-wavevector in a.u.,A,eV,Ry     =   1.515557  2.863987 31.251390  2.296912
  Thomas-Fermi vector in A             =   2.625065
 
 Write flags
   LWAVE        =      T    write WAVECAR
   LDOWNSAMPLE  =      F    k-point downsampling of WAVECAR
   LCHARG       =      T    write CHGCAR
   LVTOT        =      F    write LOCPOT, total local potential
   LVHAR        =      F    write LOCPOT, Hartree potential only
   LELF         =      F    write electronic localiz. function (ELF)
   LORBIT       =     11    0 simple, 1 ext, 2 COOP (PROOUT), +10 PAW based schemes


 Dipole corrections
   LMONO  =      F    monopole corrections only (constant potential shift)
   LDIPOL =      F    correct potential (dipole corrections)
   IDIPOL =      0    1-x, 2-y, 3-z, 4-all directions 
   EPSILON=  1.0000000 bulk dielectric constant

 Exchange correlation treatment:
   GGA     =    PE    GGA type
   LEXCH   =     8    internal setting for exchange type
   VOSKOWN=      0    Vosko Wilk Nusair interpolation
   LHFCALC =     F    Hartree Fock is set to
   LHFONE  =     F    Hartree Fock one center treatment
   AEXX    =    0.0000 exact exchange contribution

 Linear response parameters
   LEPSILON=     F    determine dielectric tensor
   LRPA    =     F    only Hartree local field effects (RPA)
   LNABLA  =     F    use nabla operator in PAW spheres
   LVEL    =     F    velocity operator in full k-point grid
   LINTERFAST=   F  fast interpolation
   KINTER  =     0    interpolate to denser k-point grid
   CSHIFT  =0.1000    complex shift for real part using Kramers Kronig
   OMEGAMAX=  -1.0    maximum frequency
   DEG_THRESHOLD= 0.2000000E-02 threshold for treating states as degnerate
   RTIME   =   -0.100 relaxation time in fs
  (WPLASMAI=    0.000 imaginary part of plasma frequency in eV, 0.658/RTIME)
   DFIELD  = 0.0000000 0.0000000 0.0000000 field for delta impulse in time
 
 Orbital magnetization related:
   ORBITALMAG=     F  switch on orbital magnetization
   LCHIMAG   =     F  perturbation theory with respect to B field
   DQ        =  0.001000  dq finite difference perturbation B field
   LLRAUG    =     F  two centre corrections for induced B field



--------------------------------------------------------------------------------------------------------


 conjugate gradient relaxation of ions
 charge density and potential will be updated during run
 spin polarized calculation
 RMM-DIIS sequential band-by-band and
  variant of blocked Davidson during initial phase
 perform sub-space diagonalisation
    before iterative eigenvector-optimisation
 modified Broyden-mixing scheme, WC =      100.0
 initial mixing is a Kerker type mixing with AMIX =  0.4000 and BMIX =      1.0000
 Hartree-type preconditioning will be used
 using additional bands           10
 real space projection scheme for non local part
 use partial core corrections
 calculate Harris-corrections to forces 
   (improved forces if not selfconsistent)
 use gradient corrections 
 use of overlap-Matrix (Vanderbilt PP)
 Gauss-broadening in eV      SIGMA  =   0.01


--------------------------------------------------------------------------------------------------------


  energy-cutoff  :      400.00
  volume of cell :      126.04
      direct lattice vectors                 reciprocal lattice vectors
     2.916331000  0.000000000  0.000000000     0.342896605  0.000000075 -0.000000073
    -0.000001000  4.580966000  0.000145000     0.000000000  0.218294570 -0.000006941
     0.000002000  0.000300000  9.434393000     0.000000000 -0.000003355  0.105995161

  length of vectors
     2.916331000  4.580966002  9.434393005     0.342896605  0.218294570  0.105995161


 
 k-points in units of 2pi/SCALE and weight: Default gamma                           
   0.00000000  0.00000000  0.00000000       1.000
 
 k-points in reciprocal lattice and weights: Default gamma                           
   0.00000000  0.00000000  0.00000000       1.000
 
 position of ions in fractional coordinates (direct lattice) 
   0.25000000  0.02126500  0.86501400
   0.74999900  0.97874100  0.13499200
   0.75000000  0.52131000  0.63496800
   0.25000100  0.47868900  0.36502400
   0.25000000  0.71244700  0.53693000
   0.75000000  0.21232300  0.96305200
   0.25000000  0.78767800  0.03695300
   0.75000000  0.28755100  0.46306600
   0.25000000  0.19132200  0.21631000
   0.25000000  0.30854000  0.71624800
   0.75000000  0.69145800  0.28375200
   0.75000000  0.80867700  0.78369200
 
 position of ions in cartesian coordinates  (Angst):
   0.72908446  0.09767375  8.16088511
   2.18724462  4.48361974  1.27370950
   2.18724900  2.38829388  5.99061324
   0.72908592  2.19296754  3.44384928
   0.72908311  3.26385656  5.06571194
   2.18724996  0.97293336  9.08584183
   0.72908204  3.60833722  0.34874334
   2.18724889  1.31740027  4.36878832
   0.72908299  0.87650447  2.04078129
   0.72908387  1.41362612  6.75740986
   2.18724813  3.16763071  2.67712814
   2.18724901  3.70475695  7.39377558
 


--------------------------------------------------------------------------------------------------------


 k-point  1 :   0.0000 0.0000 0.0000  plane waves:    2297

 maximum and minimum number of plane-waves per node :       576      573

 maximum number of plane-waves:      2297
 maximum index in each direction: 
   IXMAX=    4   IYMAX=    7   IZMAX=   15
   IXMIN=   -4   IYMIN=   -7   IZMIN=  -15


 real space projection operators:
  total allocation   :       4311.56 KBytes
  max/ min on nodes  :       1082.62       1073.16


 parallel 3D FFT for wavefunctions:
    minimum data exchange during FFTs selected (reduces bandwidth)
 parallel 3D FFT for charge:
    minimum data exchange during FFTs selected (reduces bandwidth)


 total amount of memory used by VASP MPI-rank0    36297. kBytes
=======================================================================

   base      :      30000. kBytes
   nonlr-proj:       2229. kBytes
   fftplans  :       1043. kBytes
   grid      :       2639. kBytes
   one-center:         93. kBytes
   wavefun   :        293. kBytes
 
     INWAV:  cpu time    0.0000: real time    0.0001
 Broyden mixing: mesh for mixing (old mesh)
   NGX =  9   NGY = 15   NGZ = 31
  (NGX  = 40   NGY  = 60   NGZ  =128)
  gives a total of   4185 points

 initial charge density was supplied:
 charge density of overlapping atoms calculated
 number of electron     100.0000000 magnetization       0.0000000
 keeping initial charge density in first step


--------------------------------------------------------------------------------------------------------


 Maximum index for non-local projection operator         1072
 Maximum index for augmentation-charges          717 (set IRDMAX)


--------------------------------------------------------------------------------------------------------


 First call to EWALD:  gamma=   0.354
 Maximum number of real-space cells 4x 3x 2
 Maximum number of reciprocal cells 2x 3x 5

    FEWALD:  cpu time    0.0012: real time    0.0012


--------------------------------------- Iteration      1(   1)  ---------------------------------------


    POTLOK:  cpu time    0.0269: real time    0.0335
    SETDIJ:  cpu time    0.4437: real time    0.4443
     EDDAV:  cpu time    0.1010: real time    0.1909
       DOS:  cpu time    0.0003: real time    0.0004
    --------------------------------------------
      LOOP:  cpu time    0.5718: real time    0.6692

 eigenvalue-minimisations  :   240
 total energy-change (2. order) : 0.1309961E+04  (-0.4805099E+04)
 number of electron     100.0000000 magnetization       0.0000000
 augmentation part      100.0000000 magnetization       0.0000000

 Free energy of the ion-electron system (eV)
  ---------------------------------------------------
  alpha Z        PSCENC =       441.37612112
  Ewald energy   TEWEN  =     -7485.64291034
  -Hartree energ DENC   =     -3708.68415669
  -exchange      EXHF   =         0.00000000
  -V(xc)+E(xc)   XCENC  =       504.34541927
  PAW double counting   =      9348.48672290    -9564.88662345
  entropy T*S    EENTRO =        -0.00000000
  eigenvalues    EBANDS =       215.90852761
  atomic energy  EATOM  =     11559.05757976
  Solvation  Ediel_sol  =         0.00000000
  ---------------------------------------------------
  free energy    TOTEN  =      1309.96068017 eV

  energy without entropy =     1309.96068017  energy(sigma->0) =     1309.96068017


--------------------------------------------------------------------------------------------------------




--------------------------------------- Iteration      1(   2)  ---------------------------------------


     EDDAV:  cpu time    0.0904: real time    0.1815
       DOS:  cpu time    0.0002: real time    0.0005
    --------------------------------------------
      LOOP:  cpu time    0.0906: real time    0.1820

 eigenvalue-minimisations  :   256
 total energy-change (2. order) :-0.1223443E+04  (-0.1156797E+04)
 number of electron     100.0000000 magnetization       0.0000000
 augmentation part      100.0000000 magnetization       0.0000000

 Free energy of the ion-electron system (eV)
  ---------------------------------------------------
  alpha Z        PSCENC =       441.37612112
  Ewald energy   TEWEN  =     -7485.64291034
  -Hartree energ DENC   =     -3708.68415669
  -exchange      EXHF   =         0.00000000
  -V(xc)+E(xc)   XCENC  =       504.34541927
  PAW double counting   =      9348.48672290    -9564.88662345
  entropy T*S    EENTRO =        -0.00000000
  eigenvalues    EBANDS =     -1007.53445514
  atomic energy  EATOM  =     11559.05757976
  Solvation  Ediel_sol  =         0.00000000
  ---------------------------------------------------
  free energy    TOTEN  =        86.51769742 eV

  energy without entropy =       86.51769742  energy(sigma->0) =       86.51769742


--------------------------------------------------------------------------------------------------------




--------------------------------------- Iteration      1(   3)  ---------------------------------------


     EDDAV:  cpu time    0.1861: real time    0.2037
       DOS:  cpu time    0.0002: real time    0.0002
    --------------------------------------------
      LOOP:  cpu time    0.1863: real time    0.2039

 eigenvalue-minimisations  :   296
 total energy-change (2. order) :-0.1959743E+03  (-0.1878687E+03)
 number of electron     100.0000000 magnetization       0.0000000
 augmentation part      100.0000000 magnetization       0.0000000

 Free energy of the ion-electron system (eV)
  ---------------------------------------------------
  alpha Z        PSCENC =       441.37612112
  Ewald energy   TEWEN  =     -7485.64291034
  -Hartree energ DENC   =     -3708.68415669
  -exchange      EXHF   =         0.00000000
  -V(xc)+E(xc)   XCENC  =       504.34541927
  PAW double counting   =      9348.48672290    -9564.88662345
  entropy T*S    EENTRO =        -0.00000000
  eigenvalues    EBANDS =     -1203.50879208
  atomic energy  EATOM  =     11559.05757976
  Solvation  Ediel_sol  =         0.00000000
  ---------------------------------------------------
  free energy    TOTEN  =      -109.45663952 eV

  energy without entropy =     -109.45663952  energy(sigma->0) =     -109.45663952


--------------------------------------------------------------------------------------------------------




--------------------------------------- Iteration      1(   4)  ---------------------------------------


     EDDAV:  cpu time    0.1748: real time    0.1753
       DOS:  cpu time    0.0003: real time    0.0003
    --------------------------------------------
      LOOP:  cpu time    0.1751: real time    0.1756

 eigenvalue-minimisations  :   280
 total energy-change (2. order) :-0.1144816E+02  (-0.1065237E+02)
 number of electron     100.0000000 magnetization       0.0000000
 augmentation part      100.0000000 magnetization       0.0000000

 Free energy of the ion-electron system (eV)
  ---------------------------------------------------
  alpha Z        PSCENC =       441.37612112
  Ewald energy   TEWEN  =     -7485.64291034
  -Hartree energ DENC   =     -3708.68415669
  -exchange      EXHF   =         0.00000000
  -V(xc)+E(xc)   XCENC  =       504.34541927
  PAW double counting   =      9348.48672290    -9564.88662345
  entropy T*S    EENTRO =        -0.00000000
  eigenvalues    EBANDS =     -1214.95694742
  atomic energy  EATOM  =     11559.05757976
  Solvation  Ediel_sol  =         0.00000000
  ---------------------------------------------------
  free energy    TOTEN  =      -120.90479485 eV

  energy without entropy =     -120.90479485  energy(sigma->0) =     -120.90479485


--------------------------------------------------------------------------------------------------------




--------------------------------------- Iteration      1(   5)  ---------------------------------------


     EDDAV:  cpu time    0.1774: real time    0.1778
       DOS:  cpu time    0.0002: real time    0.0002
    CHARGE:  cpu time    0.0108: real time    0.0108
    MIXING:  cpu time    0.0011: real time    0.0011
    --------------------------------------------
      LOOP:  cpu time    0.1895: real time    0.1899

 eigenvalue-minimisations  :   272
 total energy-change (2. order) :-0.5006058E+00  (-0.4993733E+00)
 number of electron     100.0000008 magnetization      -0.0000000
 augmentation part       31.4213129 magnetization       0.0001115

 Broyden mixing:
  rms(total) = 0.64032E+01    rms(broyden)= 0.63978E+01
  rms(prec ) = 0.74508E+01
  weight for this iteration     100.00

 Free energy of the ion-electron system (eV)
  ---------------------------------------------------
  alpha Z        PSCENC =       441.37612112
  Ewald energy   TEWEN  =     -7485.64291034
  -Hartree energ DENC   =     -3708.68415669
  -exchange      EXHF   =         0.00000000
  -V(xc)+E(xc)   XCENC  =       504.34541927
  PAW double counting   =      9348.48672290    -9564.88662345
  entropy T*S    EENTRO =        -0.00000000
  eigenvalues    EBANDS =     -1215.45755322
  atomic energy  EATOM  =     11559.05757976
  Solvation  Ediel_sol  =         0.00000000
  ---------------------------------------------------
  free energy    TOTEN  =      -121.40540066 eV

  energy without entropy =     -121.40540066  energy(sigma->0) =     -121.40540066


--------------------------------------------------------------------------------------------------------




--------------------------------------- Iteration      1(   6)  ---------------------------------------


    POTLOK:  cpu time    0.0393: real time    0.0400
    SETDIJ:  cpu time    0.2645: real time    0.4317
    EDDIAG:  cpu time    0.0271: real time    0.0272
  RMM-DIIS:  cpu time    0.1388: real time    0.1391
    ORTHCH:  cpu time    0.0049: real time    0.0049
       DOS:  cpu time    0.0003: real time    0.0003
    CHARGE:  cpu time    0.0105: real time    0.0105
    MIXING:  cpu time    0.0013: real time    0.0013
    --------------------------------------------
      LOOP:  cpu time    0.4868: real time    0.6550

 eigenvalue-minimisations  :   299
 total energy-change (2. order) :-0.1035244E+01  (-0.4878043E+02)
 number of electron     100.0000054 magnetization      -0.1871276
 augmentation part       40.6498986 magnetization       0.2214102

 Broyden mixing:
  rms(total) = 0.81320E+01    rms(broyden)= 0.81278E+01
  rms(prec ) = 0.10210E+02
  weight for this iteration     100.00

 eigenvalues of (default mixing * dielectric matrix)
  average eigenvalue GAMMA=   0.4149
  0.4149

 Free energy of the ion-electron system (eV)
  ---------------------------------------------------
  alpha Z        PSCENC =       441.37612112
  Ewald energy   TEWEN  =     -7485.64291034
  -Hartree energ DENC   =     -3537.55224156
  -exchange      EXHF   =         0.00000000
  -V(xc)+E(xc)   XCENC  =       500.31920179
  PAW double counting   =     10079.53837399   -10290.66288581
  entropy T*S    EENTRO =        -0.00663788
  eigenvalues    EBANDS =     -1388.86724605
  atomic energy  EATOM  =     11559.05757976
  Solvation  Ediel_sol  =         0.00000000
  ---------------------------------------------------
  free energy    TOTEN  =      -122.44064499 eV

  energy without entropy =     -122.43400711  energy(sigma->0) =     -122.43732605


--------------------------------------------------------------------------------------------------------




--------------------------------------- Iteration      1(   7)  ---------------------------------------


    POTLOK:  cpu time    0.0384: real time    0.0385
    SETDIJ:  cpu time    0.2973: real time    0.5445
    EDDIAG:  cpu time    0.0253: real time    0.0347
  RMM-DIIS:  cpu time    0.0537: real time    0.0913
    ORTHCH:  cpu time    0.0022: real time    0.0042
       DOS:  cpu time    0.0001: real time    0.0002
    CHARGE:  cpu time    0.0044: real time    0.0087
    MIXING:  cpu time    0.0006: real time    0.0010
    --------------------------------------------
      LOOP:  cpu time    0.4220: real time    0.7230

 eigenvalue-minimisations  :   274
 total energy-change (2. order) : 0.3110146E+02  (-0.2222024E+02)
 number of electron     100.0000019 magnetization      -0.1574239
 augmentation part       32.5243453 magnetization      -0.2269627

 Broyden mixing:
  rms(total) = 0.23811E+01    rms(broyden)= 0.23727E+01
  rms(prec ) = 0.27484E+01
  weight for this iteration     100.00

 eigenvalues of (default mixing * dielectric matrix)
  average eigenvalue GAMMA=   0.5788
  0.8217  0.3358

 Free energy of the ion-electron system (eV)
  ---------------------------------------------------
  alpha Z        PSCENC =       441.37612112
  Ewald energy   TEWEN  =     -7485.64291034
  -Hartree energ DENC   =     -3690.24986975
  -exchange      EXHF   =         0.00000000
  -V(xc)+E(xc)   XCENC  =       501.35733400
  PAW double counting   =     10799.71963580   -11026.04482174
  entropy T*S    EENTRO =        -0.00000000
  eigenvalues    EBANDS =     -1190.91224971
  atomic energy  EATOM  =     11559.05757976
  Solvation  Ediel_sol  =         0.00000000
  ---------------------------------------------------
  free energy    TOTEN  =       -91.33918087 eV

  energy without entropy =      -91.33918087  energy(sigma->0) =      -91.33918087


--------------------------------------------------------------------------------------------------------




--------------------------------------- Iteration      1(   8)  ---------------------------------------


    POTLOK:  cpu time    0.0323: real time    0.0353
    SETDIJ:  cpu time    0.5029: real time    0.5264
    EDDIAG:  cpu time    0.0313: real time    0.0313
  RMM-DIIS:  cpu time    0.1095: real time    0.1097
    ORTHCH:  cpu time    0.0048: real time    0.0048
       DOS:  cpu time    0.0013: real time    0.0013
    CHARGE:  cpu time    0.0093: real time    0.0093
    MIXING:  cpu time    0.0011: real time    0.0011
    --------------------------------------------
      LOOP:  cpu time    0.6924: real time    0.7191

 eigenvalue-minimisations  :   269
 total energy-change (2. order) :-0.9904873E+00  (-0.2646202E+01)
 number of electron     100.0000020 magnetization      -0.1285511
 augmentation part       32.9613675 magnetization      -0.1439539

 Broyden mixing:
  rms(total) = 0.15634E+01    rms(broyden)= 0.15625E+01
  rms(prec ) = 0.18558E+01
  weight for this iteration     100.00

 eigenvalues of (default mixing * dielectric matrix)
  average eigenvalue GAMMA=   0.6370
  0.9428  0.3566  0.6115

 Free energy of the ion-electron system (eV)
  ---------------------------------------------------
  alpha Z        PSCENC =       441.37612112
  Ewald energy   TEWEN  =     -7485.64291034
  -Hartree energ DENC   =     -3645.44055609
  -exchange      EXHF   =         0.00000000
  -V(xc)+E(xc)   XCENC  =       499.45388761
  PAW double counting   =     11246.23496649   -11472.90338536
  entropy T*S    EENTRO =        -0.00000000
  eigenvalues    EBANDS =     -1234.46537138
  atomic energy  EATOM  =     11559.05757976
  Solvation  Ediel_sol  =         0.00000000
  ---------------------------------------------------
  free energy    TOTEN  =       -92.32966820 eV

  energy without entropy =      -92.32966820  energy(sigma->0) =      -92.32966820


--------------------------------------------------------------------------------------------------------




--------------------------------------- Iteration      1(   9)  ---------------------------------------


    POTLOK:  cpu time    0.0371: real time    0.0371
    SETDIJ:  cpu time    0.4289: real time    0.4571
    EDDIAG:  cpu time    0.0319: real time    0.0319
  RMM-DIIS:  cpu time    0.1090: real time    0.1092
    ORTHCH:  cpu time    0.0040: real time    0.0040
       DOS:  cpu time    0.0003: real time    0.0003
    CHARGE:  cpu time    0.0084: real time    0.0085
    MIXING:  cpu time    0.0011: real time    0.0011
    --------------------------------------------
      LOOP:  cpu time    0.6207: real time    0.6492

 eigenvalue-minimisations  :   265
 total energy-change (2. order) : 0.1003702E+01  (-0.3948358E+00)
 number of electron     100.0000022 magnetization      -0.0611679
 augmentation part       33.5530517 magnetization      -0.0841565

 Broyden mixing:
  rms(total) = 0.63844E+00    rms(broyden)= 0.63688E+00
  rms(prec ) = 0.74215E+00
  weight for this iteration     100.00

 eigenvalues of (default mixing * dielectric matrix)
  average eigenvalue GAMMA=   0.8990
  1.4752  1.1975  0.3523  0.5709

 Free energy of the ion-electron system (eV)
  ---------------------------------------------------
  alpha Z        PSCENC =       441.37612112
  Ewald energy   TEWEN  =     -7485.64291034
  -Hartree energ DENC   =     -3620.94050521
  -exchange      EXHF   =         0.00000000
  -V(xc)+E(xc)   XCENC  =       499.15934035
  PAW double counting   =     11533.88863086   -11762.70906074
  entropy T*S    EENTRO =        -0.00000000
  eigenvalues    EBANDS =     -1255.51516232
  atomic energy  EATOM  =     11559.05757976
  Solvation  Ediel_sol  =         0.00000000
  ---------------------------------------------------
  free energy    TOTEN  =       -91.32596651 eV

  energy without entropy =      -91.32596651  energy(sigma->0) =      -91.32596651


--------------------------------------------------------------------------------------------------------




--------------------------------------- Iteration      1(  10)  ---------------------------------------


    POTLOK:  cpu time    0.0332: real time    0.0333
    SETDIJ:  cpu time    0.4884: real time    0.4891
    EDDIAG:  cpu time    0.0274: real time    0.0275
  RMM-DIIS:  cpu time    0.0898: real time    0.0934
    ORTHCH:  cpu time    0.0030: real time    0.0058
       DOS:  cpu time    0.0001: real time    0.0002
    CHARGE:  cpu time    0.0048: real time    0.0091
    MIXING:  cpu time    0.0008: real time    0.0014
    --------------------------------------------
      LOOP:  cpu time    0.6476: real time    0.6597

 eigenvalue-minimisations  :   261
 total energy-change (2. order) :-0.4718037E-01  (-0.2217952E+00)
 number of electron     100.0000025 magnetization      -0.0329929
 augmentation part       34.0553264 magnetization      -0.0335700

 Broyden mixing:
  rms(total) = 0.46975E+00    rms(broyden)= 0.46823E+00
  rms(prec ) = 0.53022E+00
  weight for this iteration     100.00

 eigenvalues of (default mixing * dielectric matrix)
  average eigenvalue GAMMA=   0.8583
  1.6319  1.2197  0.3462  0.5469  0.5469

 Free energy of the ion-electron system (eV)
  ---------------------------------------------------
  alpha Z        PSCENC =       441.37612112
  Ewald energy   TEWEN  =     -7485.64291034
  -Hartree energ DENC   =     -3603.60867659
  -exchange      EXHF   =         0.00000000
  -V(xc)+E(xc)   XCENC  =       499.54725483
  PAW double counting   =     11748.89117031   -11980.12032936
  entropy T*S    EENTRO =        -0.00000000
  eigenvalues    EBANDS =     -1270.87335661
  atomic energy  EATOM  =     11559.05757976
  Solvation  Ediel_sol  =         0.00000000
  ---------------------------------------------------
  free energy    TOTEN  =       -91.37314688 eV

  energy without entropy =      -91.37314688  energy(sigma->0) =      -91.37314688


--------------------------------------------------------------------------------------------------------




--------------------------------------- Iteration      1(  11)  ---------------------------------------


    POTLOK:  cpu time    0.0293: real time    0.0323
    SETDIJ:  cpu time    0.4439: real time    0.5601
    EDDIAG:  cpu time    0.0175: real time    0.0321
  RMM-DIIS:  cpu time    0.0840: real time    0.1213
    ORTHCH:  cpu time    0.0042: real time    0.0042
       DOS:  cpu time    0.0006: real time    0.0006
    CHARGE:  cpu time    0.0123: real time    0.0123
    MIXING:  cpu time    0.0012: real time    0.0012
    --------------------------------------------
      LOOP:  cpu time    0.5930: real time    0.7642

 eigenvalue-minimisations  :   289
 total energy-change (2. order) : 0.5112121E-01  (-0.2809620E-01)
 number of electron     100.0000025 magnetization       0.0038173
 augmentation part       34.0153491 magnetization      -0.0032968

 Broyden mixing:
  rms(total) = 0.29931E+00    rms(broyden)= 0.29924E+00
  rms(prec ) = 0.33980E+00
  weight for this iteration     100.00

 eigenvalues of (default mixing * dielectric matrix)
  average eigenvalue GAMMA=   0.9003
  1.5289  1.5289  0.9214  0.6342  0.3503  0.4381

 Free energy of the ion-electron system (eV)
  ---------------------------------------------------
  alpha Z        PSCENC =       441.37612112
  Ewald energy   TEWEN  =     -7485.64291034
  -Hartree energ DENC   =     -3603.73274600
  -exchange      EXHF   =         0.00000000
  -V(xc)+E(xc)   XCENC  =       499.57213557
  PAW double counting   =     11776.95022878   -12008.97758479
  entropy T*S    EENTRO =        -0.00000000
  eigenvalues    EBANDS =     -1269.92484977
  atomic energy  EATOM  =     11559.05757976
  Solvation  Ediel_sol  =         0.00000000
  ---------------------------------------------------
  free energy    TOTEN  =       -91.32202567 eV

  energy without entropy =      -91.32202567  energy(sigma->0) =      -91.32202567


--------------------------------------------------------------------------------------------------------




--------------------------------------- Iteration      1(  12)  ---------------------------------------


    POTLOK:  cpu time    0.0322: real time    0.0333
    SETDIJ:  cpu time    0.5185: real time    0.7093
    EDDIAG:  cpu time    0.0181: real time    0.0312
  RMM-DIIS:  cpu time    0.0444: real time    0.0868
    ORTHCH:  cpu time    0.0025: real time    0.0048
       DOS:  cpu time    0.0001: real time    0.0007
    CHARGE:  cpu time    0.0048: real time    0.0093
    MIXING:  cpu time    0.0006: real time    0.0014
    --------------------------------------------
      LOOP:  cpu time    0.6213: real time    0.8767

 eigenvalue-minimisations  :   266
 total energy-change (2. order) : 0.3178030E-01  (-0.1750462E-01)
 number of electron     100.0000024 magnetization       0.0095204
 augmentation part       33.8687293 magnetization       0.0126406

 Broyden mixing:
  rms(total) = 0.11682E+00    rms(broyden)= 0.11650E+00
  rms(prec ) = 0.12128E+00
  weight for this iteration     100.00

 eigenvalues of (default mixing * dielectric matrix)
  average eigenvalue GAMMA=   0.9222
  1.5626  1.5626  1.2385  0.6528  0.6528  0.3496  0.4367

 Free energy of the ion-electron system (eV)
  ---------------------------------------------------
  alpha Z        PSCENC =       441.37612112
  Ewald energy   TEWEN  =     -7485.64291034
  -Hartree energ DENC   =     -3605.99519256
  -exchange      EXHF   =         0.00000000
  -V(xc)+E(xc)   XCENC  =       499.50572185
  PAW double counting   =     11816.35894759   -12049.66657348
  entropy T*S    EENTRO =        -0.00000000
  eigenvalues    EBANDS =     -1266.28393930
  atomic energy  EATOM  =     11559.05757976
  Solvation  Ediel_sol  =         0.00000000
  ---------------------------------------------------
  free energy    TOTEN  =       -91.29024537 eV

  energy without entropy =      -91.29024537  energy(sigma->0) =      -91.29024537


--------------------------------------------------------------------------------------------------------




--------------------------------------- Iteration      1(  13)  ---------------------------------------


    POTLOK:  cpu time    0.0328: real time    0.0367
    SETDIJ:  cpu time    0.4528: real time    0.4534
    EDDIAG:  cpu time    0.0262: real time    0.0263
  RMM-DIIS:  cpu time    0.0924: real time    0.0926
    ORTHCH:  cpu time    0.0044: real time    0.0044
       DOS:  cpu time    0.0001: real time    0.0001
    CHARGE:  cpu time    0.0092: real time    0.0092
    MIXING:  cpu time    0.0013: real time    0.0013
    --------------------------------------------
      LOOP:  cpu time    0.6192: real time    0.6240

 eigenvalue-minimisations  :   287
 total energy-change (2. order) :-0.2640321E-02  (-0.1425636E-02)
 number of electron     100.0000024 magnetization       0.0076689
 augmentation part       33.8718035 magnetization       0.0085993

 Broyden mixing:
  rms(total) = 0.41020E-01    rms(broyden)= 0.40989E-01
  rms(prec ) = 0.44600E-01
  weight for this iteration     100.00

 eigenvalues of (default mixing * dielectric matrix)
  average eigenvalue GAMMA=   1.0085
  2.4315  1.3699  1.3699  0.7466  0.7466  0.6184  0.3496  0.4351

 Free energy of the ion-electron system (eV)
  ---------------------------------------------------
  alpha Z        PSCENC =       441.37612112
  Ewald energy   TEWEN  =     -7485.64291034
  -Hartree energ DENC   =     -3605.71867040
  -exchange      EXHF   =         0.00000000
  -V(xc)+E(xc)   XCENC  =       499.48098881
  PAW double counting   =     11857.73965700   -12091.67867002
  entropy T*S    EENTRO =        -0.00000000
  eigenvalues    EBANDS =     -1265.90698162
  atomic energy  EATOM  =     11559.05757976
  Solvation  Ediel_sol  =         0.00000000
  ---------------------------------------------------
  free energy    TOTEN  =       -91.29288569 eV

  energy without entropy =      -91.29288569  energy(sigma->0) =      -91.29288569


--------------------------------------------------------------------------------------------------------




--------------------------------------- Iteration      1(  14)  ---------------------------------------


    POTLOK:  cpu time    0.0361: real time    0.0372
    SETDIJ:  cpu time    0.4529: real time    0.4536
    EDDIAG:  cpu time    0.0286: real time    0.0287
  RMM-DIIS:  cpu time    0.0555: real time    0.1070
    ORTHCH:  cpu time    0.0022: real time    0.0045
       DOS:  cpu time    0.0001: real time    0.0002
    CHARGE:  cpu time    0.0055: real time    0.0103
    MIXING:  cpu time    0.0006: real time    0.0019
    --------------------------------------------
      LOOP:  cpu time    0.5817: real time    0.6435

 eigenvalue-minimisations  :   282
 total energy-change (2. order) :-0.2524130E-03  (-0.2404305E-03)
 number of electron     100.0000024 magnetization       0.0044760
 augmentation part       33.8830848 magnetization       0.0040655

 Broyden mixing:
  rms(total) = 0.16068E-01    rms(broyden)= 0.16040E-01
  rms(prec ) = 0.17488E-01
  weight for this iteration     100.00

 eigenvalues of (default mixing * dielectric matrix)
  average eigenvalue GAMMA=   0.9805
  2.4407  1.3540  1.3540  0.8354  0.8354  0.3496  0.4406  0.6373  0.5774

 Free energy of the ion-electron system (eV)
  ---------------------------------------------------
  alpha Z        PSCENC =       441.37612112
  Ewald energy   TEWEN  =     -7485.64291034
  -Hartree energ DENC   =     -3605.79386784
  -exchange      EXHF   =         0.00000000
  -V(xc)+E(xc)   XCENC  =       499.50968612
  PAW double counting   =     11874.08226838   -12108.22566607
  entropy T*S    EENTRO =        -0.00000000
  eigenvalues    EBANDS =     -1265.65634923
  atomic energy  EATOM  =     11559.05757976
  Solvation  Ediel_sol  =         0.00000000
  ---------------------------------------------------
  free energy    TOTEN  =       -91.29313810 eV

  energy without entropy =      -91.29313810  energy(sigma->0) =      -91.29313810


--------------------------------------------------------------------------------------------------------




--------------------------------------- Iteration      1(  15)  ---------------------------------------


    POTLOK:  cpu time    0.0341: real time    0.0388
    SETDIJ:  cpu time    0.3832: real time    0.5139
    EDDIAG:  cpu time    0.0144: real time    0.0274
  RMM-DIIS:  cpu time    0.0651: real time    0.0781
    ORTHCH:  cpu time    0.0042: real time    0.0042
       DOS:  cpu time    0.0001: real time    0.0001
    CHARGE:  cpu time    0.0091: real time    0.0091
    MIXING:  cpu time    0.0017: real time    0.0017
    --------------------------------------------
      LOOP:  cpu time    0.5119: real time    0.6734

 eigenvalue-minimisations  :   252
 total energy-change (2. order) :-0.3230160E-05  (-0.5433708E-04)
 number of electron     100.0000024 magnetization       0.0016777
 augmentation part       33.8818300 magnetization       0.0015573

 Broyden mixing:
  rms(total) = 0.91377E-02    rms(broyden)= 0.91311E-02
  rms(prec ) = 0.99805E-02
  weight for this iteration     100.00

 eigenvalues of (default mixing * dielectric matrix)
  average eigenvalue GAMMA=   0.9774
  2.4364  1.4456  1.4456  1.1002  0.3496  0.7176  0.7176  0.6017  0.4443  0.5149

 Free energy of the ion-electron system (eV)
  ---------------------------------------------------
  alpha Z        PSCENC =       441.37612112
  Ewald energy   TEWEN  =     -7485.64291034
  -Hartree energ DENC   =     -3606.12940112
  -exchange      EXHF   =         0.00000000
  -V(xc)+E(xc)   XCENC  =       499.53028109
  PAW double counting   =     11875.79887282   -12109.93100267
  entropy T*S    EENTRO =        -0.00000000
  eigenvalues    EBANDS =     -1265.35268200
  atomic energy  EATOM  =     11559.05757976
  Solvation  Ediel_sol  =         0.00000000
  ---------------------------------------------------
  free energy    TOTEN  =       -91.29314133 eV

  energy without entropy =      -91.29314133  energy(sigma->0) =      -91.29314133


--------------------------------------------------------------------------------------------------------




--------------------------------------- Iteration      1(  16)  ---------------------------------------


    POTLOK:  cpu time    0.0379: real time    0.0388
    SETDIJ:  cpu time    0.4932: real time    0.4942
    EDDIAG:  cpu time    0.0264: real time    0.0265
  RMM-DIIS:  cpu time    0.0817: real time    0.0818
    ORTHCH:  cpu time    0.0041: real time    0.0041
       DOS:  cpu time    0.0001: real time    0.0001
    CHARGE:  cpu time    0.0101: real time    0.0104
    MIXING:  cpu time    0.0017: real time    0.0017
    --------------------------------------------
      LOOP:  cpu time    0.6553: real time    0.6576

 eigenvalue-minimisations  :   248
 total energy-change (2. order) :-0.2532900E-04  (-0.1769171E-04)
 number of electron     100.0000024 magnetization       0.0005428
 augmentation part       33.8806579 magnetization       0.0004392

 Broyden mixing:
  rms(total) = 0.50234E-02    rms(broyden)= 0.50201E-02
  rms(prec ) = 0.57970E-02
  weight for this iteration     100.00

 eigenvalues of (default mixing * dielectric matrix)
  average eigenvalue GAMMA=   0.9906
  2.4603  1.6051  1.6051  0.9617  0.9617  0.3496  0.7103  0.7103  0.6349  0.4489
  0.4489

 Free energy of the ion-electron system (eV)
  ---------------------------------------------------
  alpha Z        PSCENC =       441.37612112
  Ewald energy   TEWEN  =     -7485.64291034
  -Hartree energ DENC   =     -3606.37820158
  -exchange      EXHF   =         0.00000000
  -V(xc)+E(xc)   XCENC  =       499.54306929
  PAW double counting   =     11878.24692158   -12112.36983473
  entropy T*S    EENTRO =        -0.00000000
  eigenvalues    EBANDS =     -1265.12591176
  atomic energy  EATOM  =     11559.05757976
  Solvation  Ediel_sol  =         0.00000000
  ---------------------------------------------------
  free energy    TOTEN  =       -91.29316666 eV

  energy without entropy =      -91.29316666  energy(sigma->0) =      -91.29316666


--------------------------------------------------------------------------------------------------------




--------------------------------------- Iteration      1(  17)  ---------------------------------------


    POTLOK:  cpu time    0.0354: real time    0.0355
    SETDIJ:  cpu time    0.4819: real time    0.6171
    EDDIAG:  cpu time    0.0134: real time    0.0263
  RMM-DIIS:  cpu time    0.0279: real time    0.0559
    ORTHCH:  cpu time    0.0024: real time    0.0045
       DOS:  cpu time    0.0001: real time    0.0002
    --------------------------------------------
      LOOP:  cpu time    0.5612: real time    0.7395

 eigenvalue-minimisations  :   166
 total energy-change (2. order) :-0.9968848E-05  (-0.3476673E-05)
 number of electron     100.0000024 magnetization       0.0005428
 augmentation part       33.8806579 magnetization       0.0004392

 Free energy of the ion-electron system (eV)
  ---------------------------------------------------
  alpha Z        PSCENC =       441.37612112
  Ewald energy   TEWEN  =     -7485.64291034
  -Hartree energ DENC   =     -3606.46668971
  -exchange      EXHF   =         0.00000000
  -V(xc)+E(xc)   XCENC  =       499.54507648
  PAW double counting   =     11879.94989337   -12114.07086019
  entropy T*S    EENTRO =        -0.00000000
  eigenvalues    EBANDS =     -1265.04138711
  atomic energy  EATOM  =     11559.05757976
  Solvation  Ediel_sol  =         0.00000000
  ---------------------------------------------------
  free energy    TOTEN  =       -91.29317663 eV

  energy without entropy =      -91.29317663  energy(sigma->0) =      -91.29317663


--------------------------------------------------------------------------------------------------------




 average (electrostatic) potential at core
  the test charge radii are     0.9577  0.7215
  (the norm of the test charge is              1.0000)
       1 -71.8396       2 -71.8396       3 -71.8402       4 -71.8392       5 -71.1975
       6 -71.1977       7 -71.1978       8 -71.1981       9 -70.8627      10 -70.8612
      11 -70.8615      12 -70.8617
 
 
 
 E-fermi :   3.9762     XC(G=0): -11.0879     alpha+bet :-11.2923


 spin component 1

 k-point     1 :       0.0000    0.0000    0.0000
  band No.  band energies     occupation 
      1     -46.5995      1.00000
      2     -46.5963      1.00000
      3     -46.4635      1.00000
      4     -46.4603      1.00000
      5     -46.4124      1.00000
      6     -46.4076      1.00000
      7     -43.7142      1.00000
      8     -43.7103      1.00000
      9     -43.3616      1.00000
     10     -43.3529      1.00000
     11     -43.1848      1.00000
     12     -43.1739      1.00000
     13     -15.3456      1.00000
     14     -14.7888      1.00000
     15     -14.4642      1.00000
     16     -13.7103      1.00000
     17     -13.4988      1.00000
     18     -13.3790      1.00000
     19     -13.3661      1.00000
     20     -13.3054      1.00000
     21      -2.8345      1.00000
     22      -2.2294      1.00000
     23      -2.1975      1.00000
     24      -1.6141      1.00000
     25      -1.4089      1.00000
     26      -1.3486      1.00000
     27      -1.2849      1.00000
     28      -1.2064      1.00000
     29      -0.7753      1.00000
     30      -0.7073      1.00000
     31      -0.5876      1.00000
     32      -0.0755      1.00000
     33      -0.0018      1.00000
     34       0.5806      1.00000
     35       0.6199      1.00000
     36       0.8404      1.00000
     37       1.0025      1.00000
     38       1.1342      1.00000
     39       1.4644      1.00000
     40       1.8240      1.00000
     41       2.1658      1.00000
     42       2.2165      1.00000
     43       2.2672      1.00000
     44       2.5321      1.00000
     45       2.6569      1.00000
     46       2.6623      1.00000
     47       2.7630      1.00000
     48       3.0882      1.00000
     49       3.3607      1.00000
     50       3.8680      1.00000
     51       4.9986      0.00000
     52       5.0276      0.00000
     53       5.0342      0.00000
     54       5.2061      0.00000
     55       5.3071      0.00000
     56       5.4255      0.00000
     57       6.4819      0.00000
     58       6.5425      0.00000
     59       6.6993      0.00000
     60       8.3841      0.00000

 spin component 2

 k-point     1 :       0.0000    0.0000    0.0000
  band No.  band energies     occupation 
      1     -46.6000      1.00000
      2     -46.5968      1.00000
      3     -46.4640      1.00000
      4     -46.4608      1.00000
      5     -46.4128      1.00000
      6     -46.4079      1.00000
      7     -43.7139      1.00000
      8     -43.7099      1.00000
      9     -43.3610      1.00000
     10     -43.3523      1.00000
     11     -43.1845      1.00000
     12     -43.1736      1.00000
     13     -15.3455      1.00000
     14     -14.7887      1.00000
     15     -14.4642      1.00000
     16     -13.7102      1.00000
     17     -13.4985      1.00000
     18     -13.3786      1.00000
     19     -13.3661      1.00000
     20     -13.3057      1.00000
     21      -2.8343      1.00000
     22      -2.2291      1.00000
     23      -2.1975      1.00000
     24      -1.6144      1.00000
     25      -1.4090      1.00000
     26      -1.3484      1.00000
     27      -1.2846      1.00000
     28      -1.2064      1.00000
     29      -0.7754      1.00000
     30      -0.7075      1.00000
     31      -0.5878      1.00000
     32      -0.0756      1.00000
     33      -0.0019      1.00000
     34       0.5805      1.00000
     35       0.6200      1.00000
     36       0.8401      1.00000
     37       1.0026      1.00000
     38       1.1344      1.00000
     39       1.4643      1.00000
     40       1.8239      1.00000
     41       2.1657      1.00000
     42       2.2164      1.00000
     43       2.2669      1.00000
     44       2.5321      1.00000
     45       2.6569      1.00000
     46       2.6625      1.00000
     47       2.7629      1.00000
     48       3.0884      1.00000
     49       3.3607      1.00000
     50       3.8678      1.00000
     51       4.9984      0.00000
     52       5.0274      0.00000
     53       5.0336      0.00000
     54       5.2062      0.00000
     55       5.2770      0.00000
     56       5.3883      0.00000
     57       6.4765      0.00000
     58       6.5387      0.00000
     59       6.5961      0.00000
     60       6.7090      0.00000


--------------------------------------------------------------------------------------------------------


 soft charge-density along one line, spin component           1
         0         1         2         3         4         5         6         7         8         9
 total charge-density along one line
 
 soft charge-density along one line, spin component           2
         0         1         2         3         4         5         6         7         8         9
 total charge-density along one line
 
 pseudopotential strength for first ion, spin component:           1
-43.623   0.034  -0.000   8.463  -0.012   0.000  -0.000  -0.005
  0.034 -43.703  -0.000  -0.012   8.496   0.000  -0.000   0.013
 -0.000  -0.000 -44.005   0.000   0.000   8.627   0.017  -0.000
  8.463  -0.012   0.000   5.000   0.009  -0.000  -0.000   0.002
 -0.012   8.496   0.000   0.009   4.988  -0.000  -0.000  -0.004
  0.000   0.000   8.627  -0.000  -0.000   4.936  -0.005  -0.000
 -0.000  -0.000   0.017  -0.000  -0.000  -0.005  -4.130  -0.000
 -0.005   0.013  -0.000   0.002  -0.004  -0.000  -0.000  -4.018
 -0.013  -0.005   0.000   0.004  -0.002   0.000   0.000   0.197
 -0.000   0.000   0.008  -0.000  -0.000  -0.007  -0.295  -0.000
 -0.018   0.007  -0.000   0.006  -0.005  -0.000  -0.000  -0.239
 -0.000  -0.000   0.017  -0.000  -0.000  -0.005  -4.597  -0.000
 -0.005   0.013  -0.000   0.002  -0.003  -0.000  -0.000  -4.487
 -0.012  -0.005   0.000   0.004  -0.002   0.000   0.000   0.195
 -0.000   0.000   0.008  -0.000  -0.000  -0.007  -0.290  -0.000
 -0.018   0.006  -0.000   0.006  -0.005  -0.000  -0.000  -0.236
 -0.004  -0.000   0.000   0.002   0.001   0.000   0.000  -0.004
 -0.009  -0.001   0.000   0.004   0.002   0.000   0.000  -0.007
 pseudopotential strength for first ion, spin component:           2
-45.817   0.076  -0.000   9.473  -0.038   0.000   0.000  -0.001
  0.076 -45.866  -0.000  -0.038   9.495   0.000  -0.000   0.020
 -0.000  -0.000 -45.878   0.000   0.000   9.496   0.017  -0.000
  9.473  -0.038   0.000   4.670   0.014  -0.000  -0.000   0.001
 -0.038   9.495   0.000   0.014   4.663  -0.000   0.000  -0.007
  0.000   0.000   9.496  -0.000  -0.000   4.654  -0.006   0.000
  0.000  -0.000   0.017  -0.000   0.000  -0.006  -5.865  -0.000
 -0.001   0.020  -0.000   0.001  -0.007   0.000  -0.000  -5.835
 -0.009  -0.013   0.000   0.003   0.005   0.000   0.000  -0.116
 -0.000   0.000  -0.017   0.000  -0.000   0.008   0.277  -0.000
 -0.018  -0.008  -0.000   0.006   0.004  -0.000  -0.000   0.124
  0.000  -0.000   0.017  -0.000   0.000  -0.006  -6.307  -0.000
 -0.001   0.019  -0.000   0.001  -0.007   0.000  -0.000  -6.278
 -0.009  -0.013   0.000   0.003   0.005   0.000   0.000  -0.114
 -0.000   0.000  -0.016   0.000  -0.000   0.008   0.271  -0.000
 -0.018  -0.008  -0.000   0.006   0.004  -0.000  -0.000   0.122
 -0.005   0.005   0.000   0.002  -0.000   0.000   0.000  -0.023
 -0.011   0.010   0.000   0.005   0.000   0.000   0.000  -0.046
 total augmentation occupancy for first ion, spin component:           1
  1.986   0.001  -0.000  -0.056   0.000  -0.000  -0.000   0.006   0.003   0.000   0.007   0.000  -0.005  -0.002  -0.000  -0.006
  0.001   1.986  -0.000   0.000  -0.055  -0.000   0.000  -0.005  -0.012  -0.000  -0.006  -0.000   0.004   0.012   0.000   0.005
 -0.000  -0.000   1.987  -0.000  -0.000  -0.053   0.004   0.000   0.000  -0.011  -0.000  -0.004  -0.000  -0.000   0.010   0.000
 -0.056   0.000  -0.000   0.184  -0.054   0.000   0.000   0.074   0.001  -0.000   0.078  -0.000  -0.077  -0.000   0.000  -0.075
  0.000  -0.055  -0.000  -0.054   0.219   0.000  -0.000  -0.001  -0.107  -0.000  -0.022   0.000  -0.003   0.111   0.000   0.032
 -0.000  -0.000  -0.053   0.000   0.000   0.199   0.063  -0.000  -0.000  -0.113   0.000  -0.081   0.000   0.000   0.112   0.000
 -0.000   0.000   0.004   0.000  -0.000   0.063   2.920  -0.000   0.000  -1.973  -0.000  -2.425   0.000  -0.000   0.422   0.000
  0.006  -0.005   0.000   0.074  -0.001  -0.000  -0.000   6.319   0.233  -0.000   0.000   0.000  -5.489   0.604   0.000  -0.919
  0.003  -0.012   0.000   0.001  -0.107  -0.000   0.000   0.233   7.506   0.000   1.521  -0.000   0.641  -6.154  -0.000  -0.433
  0.000  -0.000  -0.011  -0.000  -0.000  -0.113  -1.973  -0.000   0.000   4.112  -0.000   0.413   0.000  -0.000  -3.252   0.000
  0.007  -0.006  -0.000   0.078  -0.022   0.000  -0.000   0.000   1.521  -0.000   6.494   0.000  -0.972  -0.427   0.000  -5.720
  0.000  -0.000  -0.004  -0.000   0.000  -0.081  -2.425   0.000  -0.000   0.413   0.000   2.984  -0.000   0.000   1.001  -0.000
 -0.005   0.004  -0.000  -0.077  -0.003   0.000   0.000  -5.489   0.641   0.000  -0.972  -0.000   5.659  -1.337  -0.000   1.738
 -0.002   0.012  -0.000  -0.000   0.111   0.000  -0.000   0.604  -6.154  -0.000  -0.427   0.000  -1.337   5.975   0.000  -0.529
 -0.000   0.000   0.010   0.000   0.000   0.112   0.422   0.000  -0.000  -3.252   0.000   1.001  -0.000   0.000   3.473  -0.000
 -0.006   0.005   0.000  -0.075   0.032   0.000   0.000  -0.919  -0.433   0.000  -5.720  -0.000   1.738  -0.529  -0.000   6.056
  0.014  -0.008  -0.000   0.007   0.006   0.000  -0.000   0.519   0.709   0.000  -1.794  -0.000  -0.667  -0.774  -0.000   1.918
 -0.006   0.004   0.000   0.004  -0.002  -0.000   0.000   0.115  -0.050  -0.000   0.172   0.000  -0.069   0.084   0.000  -0.223
 total augmentation occupancy for first ion, spin component:           2
  0.002  -0.001   0.000   0.006  -0.002   0.000   0.000  -0.000   0.001   0.000   0.000  -0.000   0.000  -0.001  -0.000   0.000
 -0.001   0.002   0.000  -0.002   0.007   0.000   0.000   0.002  -0.002   0.000  -0.003  -0.000  -0.002   0.002  -0.000   0.003
  0.000   0.000   0.003  -0.000   0.000   0.009  -0.001  -0.000  -0.000  -0.006  -0.000   0.001  -0.000   0.000   0.006   0.000
  0.006  -0.002  -0.000  -0.011   0.004  -0.000  -0.000  -0.026  -0.018   0.000   0.002  -0.000   0.016   0.012  -0.000   0.000
 -0.002   0.007   0.000   0.004  -0.014   0.000  -0.000  -0.001   0.023  -0.000   0.002   0.000  -0.004  -0.012   0.000   0.004
  0.000   0.000   0.009  -0.000   0.000  -0.013  -0.002  -0.000   0.000   0.093  -0.000  -0.000   0.000  -0.000  -0.058   0.000
  0.000   0.000  -0.001  -0.000  -0.000  -0.002  -1.733  -0.000   0.000   2.959   0.000   0.528   0.000  -0.000  -1.955  -0.000
 -0.000   0.002  -0.000  -0.026  -0.001  -0.000  -0.000  -2.759  -1.797  -0.000   1.671   0.000   1.270   1.189   0.000  -1.039
  0.001  -0.002  -0.000  -0.018   0.023   0.000   0.000  -1.797  -5.014  -0.000  -2.892  -0.000   1.172   2.947   0.000   2.082
  0.000   0.000  -0.006   0.000  -0.000   0.093   2.959  -0.000  -0.000  -2.800  -0.000  -1.932   0.000   0.000   1.263   0.000
  0.000  -0.003  -0.000   0.002   0.002  -0.000   0.000   1.671  -2.892  -0.000  -3.229  -0.000  -1.012   2.078   0.000   1.579
 -0.000  -0.000   0.001  -0.000   0.000  -0.000   0.528   0.000  -0.000  -1.932  -0.000   0.128  -0.000   0.000   1.372  -0.000
  0.000  -0.002  -0.000   0.016  -0.004   0.000   0.000   1.270   1.172   0.000  -1.012  -0.000  -0.463  -0.826  -0.000   0.687
 -0.001   0.002   0.000   0.012  -0.012  -0.000  -0.000   1.189   2.947   0.000   2.078   0.000  -0.826  -1.670  -0.000  -1.537
 -0.000  -0.000   0.006  -0.000   0.000  -0.058  -1.955   0.000   0.000   1.263   0.000   1.372  -0.000  -0.000  -0.400  -0.000
  0.000   0.003   0.000   0.000   0.004   0.000  -0.000  -1.039   2.082   0.000   1.579  -0.000   0.687  -1.537  -0.000  -0.611
 -0.001   0.002  -0.000  -0.006   0.005  -0.000   0.000  -0.152  -0.024  -0.000   0.205  -0.000  -0.011   0.024   0.000  -0.110
  0.000  -0.000   0.000  -0.001   0.001  -0.000  -0.000  -0.119  -0.050   0.000   0.072   0.000   0.105   0.020  -0.000  -0.034


------------------------ aborting loop because EDIFF is reached ----------------------------------------


 


 total charge     
 
# of ion       s       p       d       tot
------------------------------------------
    1        0.323   6.347   4.936  11.605
    2        0.323   6.347   4.935  11.605
    3        0.323   6.347   4.935  11.605
    4        0.323   6.347   4.935  11.605
    5        1.588   3.436   0.000   5.024
    6        1.588   3.436   0.000   5.024
    7        1.588   3.436   0.000   5.024
    8        1.588   3.436   0.000   5.024
    9        1.574   3.500   0.000   5.074
   10        1.574   3.500   0.000   5.074
   11        1.574   3.500   0.000   5.074
   12        1.574   3.500   0.000   5.074
--------------------------------------------------
tot         13.937  53.133  19.742  86.812
 


 magnetization (x)
 
# of ion       s       p       d       tot
------------------------------------------
    1       -0.029  -0.021  -2.744  -2.794
    2        0.029   0.021   2.744   2.794
    3       -0.029  -0.021  -2.744  -2.795
    4        0.029   0.021   2.744   2.795
    5       -0.002  -0.032   0.000  -0.034
    6       -0.002  -0.032   0.000  -0.034
    7        0.002   0.032   0.000   0.034
    8        0.002   0.032   0.000   0.034
    9       -0.001  -0.007   0.000  -0.007
   10        0.001   0.007   0.000   0.007
   11       -0.001  -0.007   0.000  -0.007
   12        0.001   0.007   0.000   0.007
--------------------------------------------------
tot         -0.000   0.000  -0.000  -0.000
 
    CHARGE:  cpu time    0.0045: real time    0.0094
    FORLOC:  cpu time    0.0009: real time    0.0009
    FORNL :  cpu time    0.0541: real time    0.0649
    STRESS:  cpu time    0.1813: real time    0.1972
    FORCOR:  cpu time    0.0183: real time    0.0366
    FORHAR:  cpu time    0.0067: real time    0.0067
    MIXING:  cpu time    0.0016: real time    0.0016
    OFIELD:  cpu time    0.0001: real time    0.0001

  FORCE on cell =-STRESS in cart. coord.  units (eV):
  Direction    XX          YY          ZZ          XY          YZ          ZX
  --------------------------------------------------------------------------------------
  Alpha Z   441.37612   441.37612   441.37612
  Ewald   -1252.10130 -4029.82518 -2203.72685     0.00035     0.08268     0.00014
  Hartree  2046.53515   136.19146  1423.99268     0.00023     0.03209    -0.00017
  E(xc)    -549.72860  -550.60535  -549.70442     0.00003     0.00003    -0.00002
  Local   -2397.96557  2247.48851  -848.00390    -0.00045    -0.10932     0.00058
  n-local  -328.21124  -340.96024  -338.11099     0.00046    -0.00300    -0.00006
  augment   447.07247   460.67541   456.05877     0.00010     0.00079     0.00008
  Kinetic  1595.72129  1623.04919  1606.51472    -0.00059    -0.00016    -0.00045
  Fock        0.00000     0.00000     0.00000     0.00000     0.00000     0.00000
  -------------------------------------------------------------------------------------
  Total       2.69833   -12.61009   -11.60386     0.00012     0.00311     0.00010
  in kB      34.30024  -160.29530  -147.50448     0.00159     0.03955     0.00123
  external pressure =      -91.17 kB  Pullay stress =        0.00 kB


 VOLUME and BASIS-vectors are now :
 -----------------------------------------------------------------------------
  energy-cutoff  :      400.00
  volume of cell :      126.04
      direct lattice vectors                 reciprocal lattice vectors
     2.916331000  0.000000000  0.000000000     0.342896605  0.000000075 -0.000000073
    -0.000001000  4.580966000  0.000145000     0.000000000  0.218294570 -0.000006941
     0.000002000  0.000300000  9.434393000     0.000000000 -0.000003355  0.105995161

  length of vectors
     2.916331000  4.580966002  9.434393005     0.342896605  0.218294570  0.105995161


 FORCES acting on ions
    electron-ion (+dipol)            ewald-force                    non-local-force                 convergence-correction
 -----------------------------------------------------------------------------------------------
   0.704E-03 -.205E+02 0.120E+03   -.670E-04 0.207E+02 -.121E+03   0.793E-03 -.369E+00 0.162E+01   -.168E-02 -.158E-02 -.593E-02
   -.141E-02 0.205E+02 -.120E+03   0.143E-02 -.207E+02 0.120E+03   -.207E-03 0.369E+00 -.161E+01   0.155E-04 -.136E-03 -.190E-02
   0.503E-03 -.206E+02 -.120E+03   0.978E-04 0.208E+02 0.121E+03   -.443E-06 -.368E+00 -.162E+01   -.105E-02 0.517E-02 0.776E-02
   0.168E-02 0.206E+02 0.120E+03   -.146E-02 -.208E+02 -.121E+03   -.418E-03 0.368E+00 0.162E+01   -.144E-03 0.759E-02 -.124E-02
   0.390E-03 -.349E+03 0.348E+02   -.901E-04 0.368E+03 -.338E+02   0.100E-03 -.205E+02 0.503E+00   -.475E-03 0.162E-01 -.165E-02
   -.191E-03 -.349E+03 -.348E+02   0.173E-03 0.368E+03 0.338E+02   -.637E-04 -.205E+02 -.493E+00   0.109E-03 0.145E-01 -.721E-03
   0.128E-02 0.349E+03 0.348E+02   -.795E-03 -.368E+03 -.338E+02   -.163E-03 0.205E+02 0.495E+00   -.319E-03 -.137E-01 0.109E-02
   -.167E-03 0.349E+03 -.348E+02   0.713E-03 -.368E+03 0.338E+02   0.266E-03 0.205E+02 -.506E+00   -.564E-03 -.120E-01 -.374E-02
   0.100E-02 -.887E+02 -.322E+02   -.107E-02 0.895E+02 0.287E+02   0.180E-03 -.225E+01 0.231E+01   -.195E-04 0.101E-02 -.280E-02
   -.320E-03 0.885E+02 -.322E+02   -.149E-03 -.894E+02 0.288E+02   -.238E-03 0.228E+01 0.234E+01   0.885E-03 -.281E-02 0.681E-03
   -.113E-02 -.885E+02 0.322E+02   0.123E-02 0.894E+02 -.288E+02   -.195E-03 -.228E+01 -.234E+01   0.151E-03 -.121E-02 0.355E-02
   -.344E-03 0.887E+02 0.322E+02   -.787E-05 -.896E+02 -.288E+02   -.319E-03 0.225E+01 -.231E+01   0.886E-03 -.655E-04 0.184E-02
 -----------------------------------------------------------------------------------------------
   0.198E-02 -.144E-01 0.169E-02   0.113E-13 0.995E-13 -.355E-13   -.265E-03 0.136E-02 0.475E-03   -.220E-02 0.131E-01 -.306E-02
 
 
 POSITION                                       TOTAL-FORCE (eV/Angst)
 -----------------------------------------------------------------------------------
      0.72908      0.09767      8.16089        -0.000214     -0.152964      0.851642
      2.18724      4.48362      1.27371        -0.000127      0.152487     -0.853612
      2.18725      2.38829      5.99061        -0.000404     -0.153617     -0.852324
      0.72909      2.19297      3.44385        -0.000312      0.154541      0.853319
      0.72908      3.26386      5.06571        -0.000034     -1.731396      1.473745
      2.18725      0.97293      9.08584         0.000067     -1.725634     -1.472627
      0.72908      3.60834      0.34874         0.000043      1.725370      1.473316
      2.18725      1.31740      4.36879         0.000288      1.731096     -1.475414
      0.72908      0.87650      2.04078         0.000127     -1.380317     -1.132795
      0.72908      1.41363      6.75741         0.000219      1.387694     -1.132548
      2.18725      3.16763      2.67713         0.000093     -1.388190      1.133142
      2.18725      3.70476      7.39378         0.000256      1.380930      1.134158
 -----------------------------------------------------------------------------------
    total drift:                               -0.000488      0.000048     -0.000894


--------------------------------------------------------------------------------------------------------



  FREE ENERGIE OF THE ION-ELECTRON SYSTEM (eV)
  ---------------------------------------------------
  free  energy   TOTEN  =       -91.29317663 eV

  energy  without entropy=      -91.29317663  energy(sigma->0) =      -91.29317663
 


--------------------------------------------------------------------------------------------------------


    POTLOK:  cpu time    0.4309: real time    0.7274


--------------------------------------------------------------------------------------------------------


 stress matrix after NEB project (eV)
      2.69833      0.00012      0.00010
      0.00012    -12.61009      0.00311
      0.00010      0.00311    -11.60386
  FORCES: max atom, RMS     2.274541    1.742630
  FORCE total and by dimension    6.036648    1.731396
  Stress total and by dimension   17.347761   12.610086


--------------------------------------------------------------------------------------------------------


    WAVPRE:  cpu time    0.6739: real time    0.8812
    FEWALD:  cpu time    0.0058: real time    0.0066

 real space projection operators:
  total allocation   :       4316.19 KBytes
  max/ min on nodes  :       1083.25       1074.88

    ORTHCH:  cpu time    0.0091: real time    0.0189
     LOOP+:  cpu time   10.1228: real time   12.3060


--------------------------------------- Iteration      2(   1)  ---------------------------------------


    POTLOK:  cpu time    0.0262: real time    0.0561
    SETDIJ:  cpu time    0.2349: real time    0.4693
     EDDAV:  cpu time    0.0888: real time    0.1745
       DOS:  cpu time    0.0002: real time    0.0004
    CHARGE:  cpu time    0.0046: real time    0.0089
    MIXING:  cpu time    0.0004: real time    0.0010
    --------------------------------------------
      LOOP:  cpu time    0.3551: real time    0.7102

 eigenvalue-minimisations  :   244
 total energy-change (2. order) : 0.2294894E+01  (-0.4756995E+02)
 number of electron     100.0000000 magnetization       0.0000248
 augmentation part       34.0269245 magnetization      -0.0039546

 Broyden mixing:
  rms(total) = 0.85263E+00    rms(broyden)= 0.84997E+00
  rms(prec ) = 0.87420E+00
  weight for this iteration     100.00

 Free energy of the ion-electron system (eV)
  ---------------------------------------------------
  alpha Z        PSCENC =       441.37612112
  Ewald energy   TEWEN  =     -7278.06994220
  -Hartree energ DENC   =     -3795.59719055
  -exchange      EXHF   =         0.00000000
  -V(xc)+E(xc)   XCENC  =       500.89772872
  PAW double counting   =     11880.96549794   -12115.08249112
  entropy T*S    EENTRO =        -0.00000000
  eigenvalues    EBANDS =     -1282.54557601
  atomic energy  EATOM  =     11559.05757976
  Solvation  Ediel_sol  =         0.00000000
  ---------------------------------------------------
  free energy    TOTEN  =       -88.99827234 eV

  energy without entropy =      -88.99827234  energy(sigma->0) =      -88.99827234


--------------------------------------------------------------------------------------------------------




--------------------------------------- Iteration      2(   2)  ---------------------------------------


    POTLOK:  cpu time    0.0326: real time    0.0372
    SETDIJ:  cpu time    0.4483: real time    0.4489
    EDDIAG:  cpu time    0.0294: real time    0.0295
  RMM-DIIS:  cpu time    0.1090: real time    0.1092
    ORTHCH:  cpu time    0.0043: real time    0.0043
       DOS:  cpu time    0.0006: real time    0.0006
    CHARGE:  cpu time    0.0104: real time    0.0104
    MIXING:  cpu time    0.0008: real time    0.0008
    --------------------------------------------
      LOOP:  cpu time    0.6354: real time    0.6409

 eigenvalue-minimisations  :   294
 total energy-change (2. order) :-0.3349083E+01  (-0.3378148E+01)
 number of electron      99.9999996 magnetization       0.0000179
 augmentation part       33.7756239 magnetization      -0.0010478

 Broyden mixing:
  rms(total) = 0.71941E+00    rms(broyden)= 0.71906E+00
  rms(prec ) = 0.76335E+00
  weight for this iteration     100.00

 eigenvalues of (default mixing * dielectric matrix)
  average eigenvalue GAMMA=   0.5857
  0.5857

 Free energy of the ion-electron system (eV)
  ---------------------------------------------------
  alpha Z        PSCENC =       441.37612112
  Ewald energy   TEWEN  =     -7278.06994220
  -Hartree energ DENC   =     -3796.33270779
  -exchange      EXHF   =         0.00000000
  -V(xc)+E(xc)   XCENC  =       500.46212163
  PAW double counting   =     12463.23967195   -12698.49072454
  entropy T*S    EENTRO =        -0.00000000
  eigenvalues    EBANDS =     -1283.58947491
  atomic energy  EATOM  =     11559.05757976
  Solvation  Ediel_sol  =         0.00000000
  ---------------------------------------------------
  free energy    TOTEN  =       -92.34735497 eV

  energy without entropy =      -92.34735497  energy(sigma->0) =      -92.34735497


[...]
     14     -15.1672      1.00000
     15     -15.0434      1.00000
     16     -14.3259      1.00000
     17     -13.6912      1.00000
     18     -13.6535      1.00000
     19     -13.4221      1.00000
     20     -13.3265      1.00000
     21      -3.0465      1.00000
     22      -2.6035      1.00000
     23      -2.3251      1.00000
     24      -2.1575      1.00000
     25      -2.0688      1.00000
     26      -2.0557      1.00000
     27      -1.7604      1.00000
     28      -1.4275      1.00000
     29      -1.3620      1.00000
     30      -1.1075      1.00000
     31      -0.5202      1.00000
     32      -0.3422      1.00000
     33       0.3769      1.00000
     34       0.5163      1.00000
     35       0.6262      1.00000
     36       0.7179      1.00000
     37       0.7528      1.00000
     38       0.8293      1.00000
     39       0.8655      1.00000
     40       1.3801      1.00000
     41       1.4180      1.00000
     42       2.0820      1.00000
     43       2.7203      1.00000
     44       2.7449      1.00000
     45       2.8180      1.00000
     46       2.8395      1.00000
     47       3.0350      1.00000
     48       3.1519      1.00000
     49       3.6811      1.00000
     50       4.0721      1.00000
     51       5.3387      0.00000
     52       5.3998      0.00000
     53       5.4552      0.00000
     54       5.5809      0.00000
     55       5.8356      0.00000
     56       6.1717      0.00000
     57       6.3015      0.00000
     58       6.8003      0.00000
     59       7.0442      0.00000
     60       7.2602      0.00000


--------------------------------------------------------------------------------------------------------


 soft charge-density along one line, spin component           1
         0         1         2         3         4         5         6         7         8         9
 total charge-density along one line
 
 soft charge-density along one line, spin component           2
         0         1         2         3         4         5         6         7         8         9
 total charge-density along one line
 
 pseudopotential strength for first ion, spin component:           1
-43.327  -0.087  -0.000   8.322   0.040   0.000   0.000   0.059
 -0.087 -43.739  -0.000   0.040   8.500   0.000   0.000   0.050
 -0.000  -0.000 -43.970   0.000   0.000   8.605   0.063   0.000
  8.322   0.040   0.000   5.042  -0.010  -0.000  -0.000  -0.022
  0.040   8.500   0.000  -0.010   4.984  -0.000   0.000  -0.016
  0.000   0.000   8.605  -0.000  -0.000   4.941  -0.022   0.000
  0.000   0.000   0.063  -0.000   0.000  -0.022  -4.049  -0.000
  0.059   0.050   0.000  -0.022  -0.016   0.000  -0.000  -3.799
 -0.021   0.039  -0.000   0.009  -0.020   0.000   0.000   0.204
  0.000   0.000   0.055   0.000  -0.000  -0.007  -0.321  -0.000
 -0.023  -0.002   0.000   0.009   0.007  -0.000  -0.000  -0.097
  0.000   0.000   0.062  -0.000   0.000  -0.021  -4.519  -0.000
  0.058   0.049   0.000  -0.022  -0.015   0.000  -0.000  -4.272
 -0.021   0.038  -0.000   0.009  -0.020   0.000   0.000   0.201
  0.000   0.000   0.055   0.000  -0.000  -0.007  -0.316  -0.000
 -0.022  -0.002   0.000   0.009   0.008  -0.000  -0.000  -0.096
 -0.016  -0.012  -0.000   0.009   0.001   0.000   0.000   0.023
 -0.033  -0.023  -0.000   0.018   0.002   0.000   0.000   0.045
 pseudopotential strength for first ion, spin component:           2
-45.461   0.025   0.000   9.306  -0.018  -0.000   0.000   0.035
  0.025 -45.675  -0.000  -0.018   9.399   0.000   0.000   0.038
  0.000  -0.000 -45.671  -0.000   0.000   9.397   0.039   0.000
  9.306  -0.018  -0.000   4.723   0.007   0.000  -0.000  -0.008
 -0.018   9.399   0.000   0.007   4.694  -0.000  -0.000  -0.014
 -0.000   0.000   9.397   0.000  -0.000   4.686  -0.011  -0.000
  0.000   0.000   0.039  -0.000  -0.000  -0.011  -5.577  -0.000
  0.035   0.038   0.000  -0.008  -0.014  -0.000  -0.000  -5.691
 -0.020   0.027  -0.000   0.008  -0.009   0.000  -0.000  -0.159
  0.000   0.000   0.081  -0.000  -0.000  -0.022   0.209   0.000
 -0.033   0.023   0.000   0.017  -0.007  -0.000   0.000   0.094
  0.000   0.000   0.038  -0.000  -0.000  -0.010  -6.025  -0.000
  0.035   0.037   0.000  -0.008  -0.013  -0.000  -0.000  -6.137
 -0.019   0.026  -0.000   0.008  -0.009   0.000  -0.000  -0.156
  0.000   0.000   0.080  -0.000  -0.000  -0.021   0.205   0.000
 -0.033   0.023   0.000   0.016  -0.007  -0.000   0.000   0.092
 -0.013  -0.010  -0.000   0.006   0.002   0.000  -0.000  -0.013
 -0.027  -0.019  -0.000   0.012   0.005   0.000  -0.000  -0.028
 total augmentation occupancy for first ion, spin component:           1
  1.988   0.000   0.000  -0.049  -0.000   0.000   0.000  -0.027   0.014   0.000   0.009  -0.000   0.024  -0.013  -0.000  -0.008
  0.000   1.988   0.000  -0.000  -0.049   0.000   0.000   0.024  -0.060   0.000   0.013  -0.000  -0.023   0.056  -0.000  -0.011
  0.000   0.000   1.988   0.000   0.000  -0.044   0.025   0.000  -0.000   0.029  -0.000  -0.026  -0.000   0.000  -0.029  -0.000
 -0.049  -0.000   0.000   0.170  -0.041  -0.000   0.000  -0.152   0.007   0.000   0.041  -0.000   0.178  -0.024  -0.000  -0.033
 -0.000  -0.049   0.000  -0.041   0.239   0.000   0.000   0.261  -0.408   0.000   0.220  -0.000  -0.316   0.486  -0.000  -0.254
  0.000   0.000  -0.044  -0.000   0.000   0.277   0.189   0.000  -0.000   0.230   0.000  -0.256  -0.000   0.000  -0.350  -0.000
  0.000   0.000   0.025   0.000   0.000   0.189   3.583   0.000  -0.000  -1.026  -0.000  -3.388  -0.000   0.000  -0.755  -0.000
 -0.027   0.024   0.000  -0.152   0.261   0.000   0.000   7.423   0.339   0.000   0.630  -0.000  -6.094   0.641  -0.000  -1.127
  0.014  -0.060  -0.000   0.007  -0.408  -0.000  -0.000   0.339   7.324  -0.000   0.533   0.000   0.716  -7.042  -0.000   0.720
  0.000   0.000   0.029   0.000   0.000   0.230  -1.026   0.000  -0.000   4.732   0.001  -0.826  -0.000   0.000  -4.340  -0.001
  0.009   0.013  -0.000   0.041   0.220   0.000  -0.000   0.630   0.533   0.001   9.692  -0.000  -1.184   0.730  -0.001  -8.869
 -0.000  -0.000  -0.026  -0.000  -0.000  -0.256  -3.388  -0.000   0.000  -0.826  -0.000   4.278   0.000  -0.000   2.414   0.000
  0.024  -0.023  -0.000   0.178  -0.316  -0.000  -0.000  -6.094   0.716  -0.000  -1.184   0.000   5.904  -1.529   0.000   1.578
 -0.013   0.056   0.000  -0.024   0.486   0.000   0.000   0.641  -7.042   0.000   0.730  -0.000  -1.529   7.803   0.000  -1.807
 -0.000  -0.000  -0.029  -0.000  -0.000  -0.350  -0.755  -0.000  -0.000  -4.340  -0.001   2.414   0.000   0.000   5.021   0.001
 -0.008  -0.011  -0.000  -0.033  -0.254  -0.000  -0.000  -1.127   0.720  -0.001  -8.869   0.000   1.578  -1.807   0.001   9.195
  0.016   0.060   0.000  -0.104   0.149  -0.000   0.000   0.162   0.439  -0.000  -3.033  -0.000  -0.325  -0.541   0.000   3.100
 -0.007  -0.028  -0.000   0.020  -0.010   0.000  -0.000   0.215  -0.058   0.000   0.366   0.000  -0.157   0.109  -0.000  -0.409
 total augmentation occupancy for first ion, spin component:           2
  0.002  -0.001  -0.000   0.006  -0.002  -0.000  -0.000  -0.008   0.003   0.000  -0.004   0.000   0.007  -0.002  -0.000   0.004
 -0.001   0.002   0.000  -0.002   0.007   0.000   0.000  -0.001  -0.007  -0.000   0.005  -0.000  -0.000   0.006   0.000  -0.005
 -0.000   0.000   0.002  -0.000   0.000   0.008  -0.005   0.000   0.000   0.005  -0.000   0.006  -0.000  -0.000  -0.005   0.000
  0.006  -0.002  -0.000  -0.013   0.006   0.000   0.000   0.051   0.052   0.000   0.015  -0.000  -0.024  -0.037  -0.000  -0.007
 -0.002   0.007   0.000   0.006  -0.011   0.000   0.000   0.029  -0.000   0.000  -0.029  -0.000  -0.031   0.012  -0.000   0.011
 -0.000   0.000   0.008   0.000   0.000  -0.006   0.084  -0.000  -0.000   0.013   0.000  -0.048   0.000   0.000  -0.036  -0.000
 -0.000   0.000  -0.005   0.000   0.000   0.084  -1.463   0.000   0.000   3.027   0.000   0.387  -0.000  -0.000  -2.067  -0.000
 -0.008  -0.001   0.000   0.051   0.029  -0.000   0.000  -4.240  -2.446  -0.000   0.909  -0.000   2.296   1.695   0.000  -0.595
  0.003  -0.007   0.000   0.052  -0.000  -0.000   0.000  -2.446  -2.770   0.000  -2.899  -0.000   1.619   1.419  -0.000   2.078
  0.000  -0.000   0.005   0.000   0.000   0.013   3.027  -0.000   0.000  -2.345  -0.000  -1.930   0.000  -0.000   0.942   0.000
 -0.004   0.005  -0.000   0.015  -0.029   0.000   0.000   0.909  -2.899  -0.000  -4.395  -0.000  -0.520   2.054   0.000   2.434
  0.000  -0.000   0.006  -0.000  -0.000  -0.048   0.387  -0.000  -0.000  -1.930  -0.000   0.209   0.000   0.000   1.403   0.000
  0.007  -0.000  -0.000  -0.024  -0.031   0.000  -0.000   2.296   1.619   0.000  -0.520   0.000  -1.171  -1.163  -0.000   0.364
 -0.002   0.006  -0.000  -0.037   0.012   0.000  -0.000   1.695   1.419  -0.000   2.054   0.000  -1.163  -0.569   0.000  -1.515
 -0.000   0.000  -0.005  -0.000  -0.000  -0.036  -2.067   0.000  -0.000   0.942   0.000   1.403  -0.000   0.000  -0.135  -0.000
  0.004  -0.005   0.000  -0.007   0.011  -0.000  -0.000  -0.595   2.078   0.000   2.434   0.000   0.364  -1.515  -0.000  -1.206
 -0.000   0.003   0.000  -0.011   0.031  -0.000  -0.000  -0.104   0.180   0.000   0.519   0.000  -0.022  -0.085   0.000  -0.330
  0.000  -0.002  -0.000   0.006  -0.009   0.000  -0.000  -0.152  -0.058   0.000   0.050   0.000   0.121   0.024  -0.000  -0.019


------------------------ aborting loop because EDIFF is reached ----------------------------------------


 


 total charge     
 
# of ion       s       p       d       tot
------------------------------------------
    1        0.339   6.402   5.111  11.852
    2        0.339   6.402   5.111  11.851
    3        0.339   6.402   5.111  11.851
    4        0.339   6.402   5.111  11.852
    5        1.591   3.488   0.000   5.079
    6        1.591   3.488   0.000   5.079
    7        1.591   3.488   0.000   5.079
    8        1.591   3.488   0.000   5.079
    9        1.594   3.479   0.000   5.073
   10        1.594   3.479   0.000   5.073
   11        1.594   3.478   0.000   5.072
   12        1.594   3.479   0.000   5.073
--------------------------------------------------
tot         14.096  53.473  20.443  88.012
 


 magnetization (x)
 
# of ion       s       p       d       tot
------------------------------------------
    1       -0.034  -0.016  -2.524  -2.574
    2        0.034   0.016   2.524   2.574
    3       -0.034  -0.016  -2.524  -2.574
    4        0.034   0.016   2.524   2.574
    5       -0.003   0.092   0.000   0.089
    6       -0.003   0.092   0.000   0.089
    7        0.003  -0.092   0.000  -0.089
    8        0.003  -0.092   0.000  -0.089
    9        0.002   0.044   0.000   0.046
   10       -0.002  -0.044   0.000  -0.046
   11        0.002   0.044   0.000   0.046
   12       -0.002  -0.044   0.000  -0.046
--------------------------------------------------
tot          0.000   0.000  -0.000  -0.000
 
    CHARGE:  cpu time    0.0049: real time    0.0049
    FORLOC:  cpu time    0.0010: real time    0.0010
    FORNL :  cpu time    0.0320: real time    0.0321
    STRESS:  cpu time    0.0953: real time    0.0954
    FORCOR:  cpu time    0.0201: real time    0.0201
    FORHAR:  cpu time    0.0039: real time    0.0039
    MIXING:  cpu time    0.0006: real time    0.0006
    OFIELD:  cpu time    0.0000: real time    0.0000

  FORCE on cell =-STRESS in cart. coord.  units (eV):
  Direction    XX          YY          ZZ          XY          YZ          ZX
  --------------------------------------------------------------------------------------
  Alpha Z   441.37612   441.37612   441.37612
  Ewald    -662.50743 -4609.96587 -1977.98299    -0.00174     0.16256    -0.04262
  Hartree  2423.48807  -186.18970  1597.89730    -0.00404     0.07699    -0.01710
  E(xc)    -550.41858  -552.73481  -551.30212     0.00002     0.00009    -0.00010
  Local   -3344.97975  3118.85920 -1225.01949     0.00606    -0.22711     0.05732
  n-local  -326.79924  -347.53329  -333.08274    -0.00035     0.00640    -0.00116
  augment   439.21719   469.24205   446.30048     0.00058    -0.00275     0.00079
  Kinetic  1582.73032  1665.61010  1604.08853    -0.00001    -0.00618     0.00143
  Fock        0.00000     0.00000     0.00000     0.00000     0.00000     0.00000
  -------------------------------------------------------------------------------------
  Total       2.10670    -1.33620     2.27509     0.00052     0.01000    -0.00144
  in kB      26.77970   -16.98534    28.92017     0.00658     0.12707    -0.01836
  external pressure =       12.90 kB  Pullay stress =        0.00 kB


 VOLUME and BASIS-vectors are now :
 -----------------------------------------------------------------------------
  energy-cutoff  :      400.00
  volume of cell :      126.04
      direct lattice vectors                 reciprocal lattice vectors
     2.916331000  0.000000000  0.000000000     0.342896605  0.000000075 -0.000000073
    -0.000001000  4.580966000  0.000145000     0.000000000  0.218294570 -0.000006941
     0.000002000  0.000300000  9.434393000     0.000000000 -0.000003355  0.105995161

  length of vectors
     2.916331000  4.580966002  9.434393005     0.342896605  0.218294570  0.105995161


 FORCES acting on ions
    electron-ion (+dipol)            ewald-force                    non-local-force                 convergence-correction
 -----------------------------------------------------------------------------------------------
   -.612E-01 0.275E+02 0.235E+03   0.599E-01 -.284E+02 -.232E+03   0.205E-02 0.107E+01 -.220E+01   0.144E-02 -.991E-01 -.540E-02
   -.222E-01 -.274E+02 -.235E+03   0.221E-01 0.283E+02 0.233E+03   0.128E-02 -.109E+01 0.221E+01   -.279E-03 0.980E-01 0.150E-02
   -.150E+00 0.273E+02 -.235E+03   0.149E+00 -.281E+02 0.233E+03   0.442E-02 0.109E+01 0.220E+01   0.176E-02 -.985E-01 -.171E-02
   -.171E-01 -.275E+02 0.235E+03   0.173E-01 0.284E+02 -.233E+03   0.126E-02 -.107E+01 -.219E+01   -.738E-03 0.964E-01 -.618E-02
   0.375E-01 -.392E+03 -.755E+02   -.434E-01 0.410E+03 0.872E+02   0.523E-02 -.183E+02 -.116E+02   0.837E-04 0.157E-02 -.197E-01
   0.203E-01 -.392E+03 0.754E+02   -.235E-01 0.410E+03 -.871E+02   0.241E-02 -.183E+02 0.116E+02   0.713E-04 -.165E-02 0.195E-01
   0.118E-02 0.392E+03 -.754E+02   -.200E-02 -.410E+03 0.870E+02   0.875E-03 0.183E+02 -.116E+02   -.140E-03 0.898E-03 -.168E-01
   -.154E-01 0.392E+03 0.754E+02   0.164E-01 -.410E+03 -.871E+02   -.780E-03 0.183E+02 0.116E+02   0.643E-04 -.174E-03 0.139E-01
   0.198E-01 -.159E+03 -.150E+03   -.222E-01 0.164E+03 0.158E+03   0.168E-02 -.482E+01 -.816E+01   -.349E-04 -.222E-01 -.113E-02
   0.101E+00 0.159E+03 -.150E+03   -.114E+00 -.164E+03 0.158E+03   0.712E-02 0.481E+01 -.816E+01   0.921E-03 0.196E-01 0.674E-03
   0.239E-01 -.159E+03 0.150E+03   -.264E-01 0.164E+03 -.159E+03   0.165E-02 -.485E+01 0.818E+01   -.250E-03 -.205E-01 -.179E-03
   0.292E-01 0.159E+03 0.150E+03   -.337E-01 -.164E+03 -.159E+03   0.253E-02 0.486E+01 0.816E+01   0.522E-03 0.219E-01 0.182E-02
 -----------------------------------------------------------------------------------------------
   -.331E-01 -.399E-02 -.512E-01   0.113E-13 0.284E-13 -.284E-13   0.297E-01 0.728E-02 0.683E-01   0.342E-02 -.384E-02 -.138E-01
 
 
 POSITION                                       TOTAL-FORCE (eV/Angst)
 -----------------------------------------------------------------------------------
      0.72902     -0.19855      8.25404         0.002243      0.144476      0.184382
      2.18722      0.19948      1.17952         0.000995     -0.144099     -0.161717
      2.18709      2.09148      5.89683         0.005081      0.140374     -0.166151
      0.72907      2.48928      3.53752         0.000746     -0.143066      0.153124
      0.72910      3.17620      5.18029        -0.000570     -0.107542      0.036614
      2.18731      0.88666      8.97125        -0.000768     -0.106487     -0.030641
      0.72909      3.69546      0.46344        -0.000090      0.113280      0.022519
      2.18723      1.40408      4.25402         0.000203      0.109431     -0.023467
      0.72910      0.89341      1.93077        -0.000809      0.137961     -0.041167
      0.72918      1.39742      6.64802        -0.004470     -0.137256     -0.040585
      2.18730      3.18343      2.78692        -0.001149      0.138850      0.040597
      2.18727      3.68829      7.50447        -0.001414     -0.145921      0.026491
 -----------------------------------------------------------------------------------
    total drift:                                0.000062     -0.000544      0.003374


--------------------------------------------------------------------------------------------------------



  FREE ENERGIE OF THE ION-ELECTRON SYSTEM (eV)
  ---------------------------------------------------
  free  energy   TOTEN  =       -92.51428143 eV

  energy  without entropy=      -92.51428143  energy(sigma->0) =      -92.51428143
 
 d Force = 0.6704040E-02[-0.109E-02, 0.145E-01]  d Energy = 0.6430570E-02 0.273E-03
 d Force =-0.1320702E+02[-0.127E+02,-0.137E+02]  d Ewald  =-0.1321311E+02 0.608E-02


--------------------------------------------------------------------------------------------------------


    POTLOK:  cpu time    0.4580: real time    0.4586


--------------------------------------------------------------------------------------------------------


 stress matrix after NEB project (eV)
      2.10670      0.00052     -0.00144
      0.00052     -1.33620      0.01000
     -0.00144      0.01000      2.27509
  FORCES: max atom, RMS     0.234254    0.165393
  FORCE total and by dimension    0.572937    0.184382
  Stress total and by dimension    3.376366    2.275088


--------------------------------------------------------------------------------------------------------


    WAVPRE:  cpu time    0.0064: real time    0.0224
    FEWALD:  cpu time    0.0004: real time    0.0003

 real space projection operators:
  total allocation   :       4301.12 KBytes
  max/ min on nodes  :       1086.05       1064.16

    ORTHCH:  cpu time    0.0117: real time    0.0117
     LOOP+:  cpu time    5.3955: real time    5.4694


--------------------------------------- Iteration     38(   1)  ---------------------------------------


    POTLOK:  cpu time    0.0279: real time    0.0349
    SETDIJ:  cpu time    0.4336: real time    0.4340
     EDDAV:  cpu time    0.0950: real time    0.0951
       DOS:  cpu time    0.0002: real time    0.0002
    CHARGE:  cpu time    0.0049: real time    0.0049
    MIXING:  cpu time    0.0004: real time    0.0004
    --------------------------------------------
      LOOP:  cpu time    0.5620: real time    0.5694

 eigenvalue-minimisations  :   264
 total energy-change (2. order) : 0.5153654E-01  (-0.4720148E+00)
 number of electron      99.9999996 magnetization       0.0000000
 augmentation part       33.9279797 magnetization      -0.0000872

 Broyden mixing:
  rms(total) = 0.81511E-01    rms(broyden)= 0.81075E-01
  rms(prec ) = 0.84006E-01
  weight for this iteration     100.00

 Free energy of the ion-electron system (eV)
  ---------------------------------------------------
  alpha Z        PSCENC =       441.37612112
  Ewald energy   TEWEN  =     -7251.70604459
  -Hartree energ DENC   =     -3834.12593328
  -exchange      EXHF   =         0.00000000
  -V(xc)+E(xc)   XCENC  =       501.12724543
  PAW double counting   =     12599.23399909   -12832.30375524
  entropy T*S    EENTRO =        -0.00000000
  eigenvalues    EBANDS =     -1275.12196049
  atomic energy  EATOM  =     11559.05757976
  Solvation  Ediel_sol  =         0.00000000
  ---------------------------------------------------
  free energy    TOTEN  =       -92.46274820 eV

  energy without entropy =      -92.46274820  energy(sigma->0) =      -92.46274820


--------------------------------------------------------------------------------------------------------




--------------------------------------- Iteration     38(   2)  ---------------------------------------


    POTLOK:  cpu time    0.0196: real time    0.0202
