PROCAR lm decomposed
# of k-points:    1         # of bands:   60         # of ions:   12

 k-point     1 :    0.00000000 0.00000000 0.00000000     weight = 1.00000000

band     1 # energy  -46.29149016 # occ.  1.00000000
 
ion      s     py     pz     px    dxy    dyz    dz2    dxz  x2-y2    tot
    1  0.000  0.000  0.000  0.000  0.000  0.000  0.000  0.000  0.000  0.000
    2  0.000  0.000  0.341  0.000  0.000  0.000  0.000  0.000  0.000  0.341
    3  0.000  0.000  0.000  0.000  0.000  0.000  0.000  0.000  0.000  0.000
    4  0.000  0.000  0.650  0.000  0.000  0.000  0.000  0.000  0.000  0.650
    5  0.001  0.000  0.001  0.000  0.000  0.000  0.000  0.000  0.000  0.001
    6  0.000  0.000  0.000  0.000  0.000  0.000  0.000  0.000  0.000  0.001
    7  0.000  0.000  0.000  0.000  0.000  0.000  0.000  0.000  0.000  0.000
    8  0.000  0.000  0.000  0.000  0.000  0.000  0.000  0.000  0.000  0.000
    9  0.000  0.000  0.000  0.000  0.000  0.000  0.000  0.000  0.000  0.000
   10  0.000  0.000  0.000  0.000  0.000  0.000  0.000  0.000  0.000  0.000
   11  0.000  0.000  0.000  0.000  0.000  0.000  0.000  0.000  0.000  0.001
   12  0.000  0.000  0.000  0.000  0.000  0.000  0.000  0.000  0.000  0.000
tot    0.002  0.001  0.991  0.000  0.000  0.000  0.000  0.000  0.000  0.994
 
band     2 # energy  -46.28515193 # occ.  1.00000000
 
ion      s     py     pz     px    dxy    dyz    dz2    dxz  x2-y2    tot
    1  0.000  0.000  0.000  0.000  0.000  0.000  0.000  0.000  0.000  0.000
    2  0.000  0.000  0.650  0.000  0.000  0.000  0.000  0.000  0.000  0.650
    3  0.000  0.000  0.000  0.000  0.000  0.000  0.000  0.000  0.000  0.000
    4  0.000  0.000  0.341  0.000  0.000  0.000  0.000  0.000  0.000  0.341
    5  0.000  0.000  0.000  0.000  0.000  0.000  0.000  0.000  0.000  0.001
    6  0.001  0.000  0.001  0.000  0.000  0.000  0.000  0.000  0.000  0.001
    7  0.000  0.000  0.000  0.000  0.000  0.000  0.000  0.000  0.000  0.000
    8  0.000  0.000  0.000  0.000  0.000  0.000  0.000  0.000  0.000  0.000
    9  0.000  0.000  0.000  0.000  0.000  0.000  0.000  0.000  0.000  0.000
   10  0.000  0.000  0.000  0.000  0.000  0.000  0.000  0.000  0.000  0.000
   11  0.000  0.000  0.000  0.000  0.000  0.000  0.000  0.000  0.000  0.000
   12  0.000  0.000  0.000  0.000  0.000  0.000  0.000  0.000  0.000  0.000
tot    0.002  0.001  0.992  0.000  0.000  0.000  0.000  0.000  0.000  0.994
 
band     3 # energy  -46.19325645 # occ.  1.00000000
 
ion      s     py     pz     px    dxy    dyz    dz2    dxz  x2-y2    tot
    1  0.000  0.000  0.000  0.000  0.000  0.000  0.000  0.000  0.000  0.000
    2  0.000  0.000  0.000  0.093  0.000  0.000  0.000  0.000  0.000  0.093
    3  0.000  0.000  0.000  0.000  0.000  0.000  0.000  0.000  0.000  0.000
    4  0.000  0.000  0.000  0.901  0.000  0.000  0.000  0.000  0.000  0.901
    5  0.000  0.000  0.000  0.000  0.000  0.000  0.000  0.000  0.000  0.000
    6  0.000  0.000  0.000  0.000  0.000  0.000  0.000  0.000  0.000  0.000
    7  0.000  0.000  0.000  0.000  0.000  0.000  0.000  0.000  0.000  0.000
    8  0.000  0.000  0.000  0.000  0.000  0.000  0.000  0.000  0.000  0.000
    9  0.000  0.000  0.000  0.000  0.000  0.000  0.000  0.000  0.000  0.000
   10  0.000  0.000  0.000  0.000  0.000  0.000  0.000  0.000  0.000  0.000
   11  0.000  0.000  0.000  0.001  0.000  0.000  0.000  0.000  0.000  0.001
   12  0.000  0.000  0.000  0.000  0.000  0.000  0.000  0.000  0.000  0.000
tot    0.000  0.000  0.000  0.995  0.000  0.000  0.000  0.000  0.000  0.995
 
band     4 # energy  -46.19022287 # occ.  1.00000000
 
ion      s     py     pz     px    dxy    dyz    dz2    dxz  x2-y2    tot
    1  0.000  0.000  0.000  0.000  0.000  0.000  0.000  0.000  0.000  0.000
    2  0.000  0.000  0.000  0.901  0.000  0.000  0.000  0.000  0.000  0.901
    3  0.000  0.000  0.000  0.000  0.000  0.000  0.000  0.000  0.000  0.000
    4  0.000  0.000  0.000  0.093  0.000  0.000  0.000  0.000  0.000  0.093
    5  0.000  0.000  0.000  0.000  0.000  0.000  0.000  0.000  0.000  0.000
    6  0.000  0.000  0.000  0.000  0.000  0.000  0.000  0.000  0.000  0.000
    7  0.000  0.000  0.000  0.000  0.000  0.000  0.000  0.000  0.000  0.000
    8  0.000  0.000  0.000  0.000  0.000  0.000  0.000  0.000  0.000  0.000
    9  0.000  0.000  0.000  0.001  0.000  0.000  0.000  0.000  0.000  0.001
   10  0.000  0.000  0.000  0.000  0.000  0.000  0.000  0.000  0.000  0.000
   11  0.000  0.000  0.000  0.000  0.000  0.000  0.000  0.000  0.000  0.000
   12  0.000  0.000  0.000  0.000  0.000  0.000  0.000  0.000  0.000  0.000
tot    0.000  0.000  0.000  0.995  0.000  0.000  0.000  0.000  0.000  0.995
 
band     5 # energy  -45.95692297 # occ.  1.00000000
 
ion      s     py     pz     px    dxy    dyz    dz2    dxz  x2-y2    tot
    1  0.000  0.000  0.000  0.000  0.000  0.000  0.000  0.000  0.000  0.000
    2  0.000  0.357  0.000  0.000  0.000  0.000  0.000  0.000  0.000  0.357
    3  0.000  0.000  0.000  0.000  0.000  0.000  0.000  0.000  0.000  0.000
    4  0.000  0.635  0.000  0.000  0.000  0.000  0.000  0.000  0.000  0.635
    5  0.000  0.000  0.000  0.000  0.000  0.000  0.000  0.000  0.000  0.000
    6  0.000  0.000  0.000  0.000  0.000  0.000  0.000  0.000  0.000  0.000
    7  0.000  0.000  0.000  0.000  0.000  0.000  0.000  0.000  0.000  0.000
    8  0.000  0.000  0.000  0.000  0.000  0.000  0.000  0.000  0.000  0.000
    9  0.000  0.000  0.000  0.000  0.000  0.000  0.000  0.000  0.000  0.000
   10  0.000  0.000  0.000  0.000  0.000  0.000  0.000  0.000  0.000  0.000
   11  0.000  0.000  0.000  0.000  0.000  0.000  0.000  0.000  0.000  0.001
   12  0.000  0.000  0.000  0.000  0.000  0.000  0.000  0.000  0.000  0.000
tot    0.001  0.992  0.001  0.000  0.000  0.000  0.000  0.000  0.000  0.994
 
band     6 # energy  -45.95104114 # occ.  1.00000000
 
ion      s     py     pz     px    dxy    dyz    dz2    dxz  x2-y2    tot
    1  0.000  0.000  0.000  0.000  0.000  0.000  0.000  0.000  0.000  0.000
    2  0.000  0.635  0.000  0.000  0.000  0.000  0.000  0.000  0.000  0.635
    3  0.000  0.000  0.000  0.000  0.000  0.000  0.000  0.000  0.000  0.000
    4  0.000  0.357  0.000  0.000  0.000  0.000  0.000  0.000  0.000  0.358
    5  0.000  0.000  0.000  0.000  0.000  0.000  0.000  0.000  0.000  0.000
    6  0.000  0.000  0.000  0.000  0.000  0.000  0.000  0.000  0.000  0.000
    7  0.000  0.000  0.000  0.000  0.000  0.000  0.000  0.000  0.000  0.000
    8  0.000  0.000  0.000  0.000  0.000  0.000  0.000  0.000  0.000  0.000
    9  0.000  0.000  0.000  0.000  0.000  0.000  0.000  0.000  0.000  0.000
   10  0.000  0.000  0.000  0.000  0.000  0.000  0.000  0.000  0.000  0.000
   11  0.000  0.000  0.000  0.000  0.000  0.000  0.000  0.000  0.000  0.000
   12  0.000  0.000  0.000  0.000  0.000  0.000  0.000  0.000  0.000  0.000
tot    0.001  0.992  0.001  0.000  0.000  0.000  0.000  0.000  0.000  0.994
 
band     7 # energy  -43.71194149 # occ.  1.00000000
 
ion      s     py     pz     px    dxy    dyz    dz2    dxz  x2-y2    tot
    1  0.000  0.000  0.000  0.886  0.000  0.000  0.000  0.000  0.000  0.886
    2  0.000  0.000  0.000  0.000  0.000  0.000  0.000  0.000  0.000  0.000
    3  0.000  0.000  0.000  0.108  0.000  0.000  0.000  0.000  0.000  0.108
    4  0.000  0.000  0.000  0.000  0.000  0.000  0.000  0.000  0.000  0.000
    5  0.000  0.000  0.000  0.000  0.000  0.000  0.000  0.000  0.000  0.000
    6  0.000  0.000  0.000  0.000  0.000  0.000  0.000  0.000  0.000  0.000
    7  0.000  0.000  0.000  0.000  0.000  0.000  0.000  0.000  0.000  0.000
    8  0.000  0.000  0.000  0.000  0.000  0.000  0.000  0.000  0.000  0.000
    9  0.000  0.000  0.000  0.000  0.000  0.000  0.000  0.000  0.000  0.000
   10  0.000  0.000  0.000  0.000  0.000  0.000  0.000  0.000  0.000  0.000
   11  0.000  0.000  0.000  0.000  0.000  0.000  0.000  0.000  0.000  0.000
   12  0.000  0.000  0.000  0.002  0.000  0.000  0.000  0.000  0.000  0.002
tot    0.000  0.000  0.000  0.996  0.000  0.000  0.000  0.000  0.000  0.996
 
band     8 # energy  -43.70848464 # occ.  1.00000000
 
ion      s     py     pz     px    dxy    dyz    dz2    dxz  x2-y2    tot
    1  0.000  0.000  0.000  0.108  0.000  0.000  0.000  0.000  0.000  0.108
    2  0.000  0.000  0.000  0.000  0.000  0.000  0.000  0.000  0.000  0.000
    3  0.000  0.000  0.000  0.886  0.000  0.000  0.000  0.000  0.000  0.886
    4  0.000  0.000  0.000  0.000  0.000  0.000  0.000  0.000  0.000  0.000
    5  0.000  0.000  0.000  0.000  0.000  0.000  0.000  0.000  0.000  0.000
    6  0.000  0.000  0.000  0.000  0.000  0.000  0.000  0.000  0.000  0.000
    7  0.000  0.000  0.000  0.000  0.000  0.000  0.000  0.000  0.000  0.000
    8  0.000  0.000  0.000  0.000  0.000  0.000  0.000  0.000  0.000  0.000
    9  0.000  0.000  0.000  0.000  0.000  0.000  0.000  0.000  0.000  0.000
   10  0.000  0.000  0.000  0.001  0.000  0.000  0.000  0.000  0.000  0.001
   11  0.000  0.000  0.000  0.000  0.000  0.000  0.000  0.000  0.000  0.000
   12  0.000  0.000  0.000  0.000  0.000  0.000  0.000  0.000  0.000  0.000
tot    0.000  0.000  0.000  0.996  0.000  0.000  0.000  0.000  0.000  0.996
 
band     9 # energy  -43.49282338 # occ.  1.00000000
 
ion      s     py     pz     px    dxy    dyz    dz2    dxz  x2-y2    tot
    1  0.000  0.029  0.532  0.000  0.000  0.000  0.000  0.000  0.000  0.561
    2  0.000  0.000  0.000  0.000  0.000  0.000  0.000  0.000  0.000  0.000
    3  0.000  0.022  0.407  0.000  0.000  0.000  0.000  0.000  0.000  0.430
    4  0.000  0.000  0.000  0.000  0.000  0.000  0.000  0.000  0.000  0.000
    5  0.000  0.000  0.000  0.000  0.000  0.000  0.000  0.000  0.000  0.000
    6  0.000  0.000  0.000  0.000  0.000  0.000  0.000  0.000  0.000  0.000
    7  0.001  0.000  0.000  0.000  0.000  0.000  0.000  0.000  0.000  0.001
    8  0.000  0.000  0.000  0.000  0.000  0.000  0.000  0.000  0.000  0.001
    9  0.000  0.000  0.000  0.000  0.000  0.000  0.000  0.000  0.000  0.000
   10  0.001  0.000  0.000  0.000  0.000  0.000  0.000  0.000  0.000  0.001
   11  0.000  0.000  0.000  0.000  0.000  0.000  0.000  0.000  0.000  0.000
   12  0.001  0.000  0.000  0.000  0.000  0.000  0.000  0.000  0.000  0.001
tot    0.002  0.051  0.940  0.000  0.000  0.000  0.000  0.000  0.000  0.994
 
band    10 # energy  -43.48597672 # occ.  1.00000000
 
ion      s     py     pz     px    dxy    dyz    dz2    dxz  x2-y2    tot
    1  0.000  0.023  0.407  0.000  0.000  0.000  0.000  0.000  0.000  0.430
    2  0.000  0.000  0.000  0.000  0.000  0.000  0.000  0.000  0.000  0.000
    3  0.000  0.030  0.531  0.000  0.000  0.000  0.000  0.000  0.000  0.561
    4  0.000  0.000  0.000  0.000  0.000  0.000  0.000  0.000  0.000  0.000
    5  0.000  0.000  0.000  0.000  0.000  0.000  0.000  0.000  0.000  0.000
    6  0.000  0.000  0.000  0.000  0.000  0.000  0.000  0.000  0.000  0.000
    7  0.000  0.000  0.000  0.000  0.000  0.000  0.000  0.000  0.000  0.001
    8  0.001  0.000  0.000  0.000  0.000  0.000  0.000  0.000  0.000  0.001
    9  0.000  0.000  0.000  0.000  0.000  0.000  0.000  0.000  0.000  0.000
   10  0.001  0.000  0.000  0.000  0.000  0.000  0.000  0.000  0.000  0.001
   11  0.000  0.000  0.000  0.000  0.000  0.000  0.000  0.000  0.000  0.000
   12  0.000  0.000  0.000  0.000  0.000  0.000  0.000  0.000  0.000  0.001
tot    0.002  0.053  0.939  0.000  0.000  0.000  0.000  0.000  0.000  0.995
 
band    11 # energy  -42.75741222 # occ.  1.00000000
 
ion      s     py     pz     px    dxy    dyz    dz2    dxz  x2-y2    tot
    1  0.000  0.542  0.031  0.000  0.000  0.000  0.000  0.000  0.000  0.573
    2  0.000  0.000  0.000  0.000  0.000  0.000  0.000  0.000  0.000  0.000
    3  0.000  0.397  0.023  0.000  0.000  0.000  0.000  0.000  0.000  0.420
    4  0.000  0.000  0.000  0.000  0.000  0.000  0.000  0.000  0.000  0.000
    5  0.000  0.000  0.000  0.000  0.000  0.000  0.000  0.000  0.000  0.000
    6  0.000  0.000  0.000  0.000  0.000  0.000  0.000  0.000  0.000  0.000
    7  0.000  0.000  0.000  0.000  0.000  0.000  0.000  0.000  0.000  0.000
    8  0.000  0.000  0.000  0.000  0.000  0.000  0.000  0.000  0.000  0.000
    9  0.000  0.000  0.000  0.000  0.000  0.000  0.000  0.000  0.000  0.000
   10  0.000  0.000  0.000  0.000  0.000  0.000  0.000  0.000  0.000  0.000
   11  0.000  0.000  0.000  0.000  0.000  0.000  0.000  0.000  0.000  0.000
   12  0.000  0.000  0.000  0.000  0.000  0.000  0.000  0.000  0.000  0.000
tot    0.001  0.939  0.054  0.000  0.000  0.000  0.000  0.000  0.000  0.994
 
band    12 # energy  -42.75076057 # occ.  1.00000000
 
ion      s     py     pz     px    dxy    dyz    dz2    dxz  x2-y2    tot
    1  0.000  0.398  0.022  0.000  0.000  0.000  0.000  0.000  0.000  0.420
    2  0.000  0.000  0.000  0.000  0.000  0.000  0.000  0.000  0.000  0.000
    3  0.000  0.543  0.030  0.000  0.000  0.000  0.000  0.000  0.000  0.573
    4  0.000  0.000  0.000  0.000  0.000  0.000  0.000  0.000  0.000  0.000
    5  0.000  0.000  0.000  0.000  0.000  0.000  0.000  0.000  0.000  0.000
    6  0.000  0.000  0.000  0.000  0.000  0.000  0.000  0.000  0.000  0.000
    7  0.000  0.000  0.000  0.000  0.000  0.000  0.000  0.000  0.000  0.000
    8  0.000  0.000  0.000  0.000  0.000  0.000  0.000  0.000  0.000  0.000
    9  0.000  0.000  0.000  0.000  0.000  0.000  0.000  0.000  0.000  0.000
   10  0.000  0.000  0.000  0.000  0.000  0.000  0.000  0.000  0.000  0.000
   11  0.000  0.000  0.000  0.000  0.000  0.000  0.000  0.000  0.000  0.000
   12  0.000  0.000  0.000  0.000  0.000  0.000  0.000  0.000  0.000  0.000
tot    0.001  0.942  0.052  0.000  0.000  0.000  0.000  0.000  0.000  0.994
 
band    13 # energy  -15.75538216 # occ.  1.00000000
 
ion      s     py     pz     px    dxy    dyz    dz2    dxz  x2-y2    tot
    1  0.025  0.000  0.001  0.000  0.000  0.000  0.000  0.000  0.002  0.029
    2  0.030  0.000  0.000  0.000  0.000  0.000  0.000  0.000  0.003  0.034
    3  0.025  0.000  0.001  0.000  0.000  0.000  0.000  0.000  0.002  0.029
    4  0.030  0.000  0.000  0.000  0.000  0.000  0.000  0.000  0.003  0.034
    5  0.092  0.002  0.000  0.000  0.000  0.000  0.000  0.000  0.000  0.094
    6  0.092  0.002  0.000  0.000  0.000  0.000  0.000  0.000  0.000  0.093
    7  0.086  0.002  0.000  0.000  0.000  0.000  0.000  0.000  0.000  0.088
    8  0.086  0.002  0.000  0.000  0.000  0.000  0.000  0.000  0.000  0.088
    9  0.096  0.000  0.000  0.000  0.000  0.000  0.000  0.000  0.000  0.097
   10  0.073  0.000  0.000  0.000  0.000  0.000  0.000  0.000  0.000  0.074
   11  0.097  0.000  0.000  0.000  0.000  0.000  0.000  0.000  0.000  0.097
   12  0.073  0.000  0.000  0.000  0.000  0.000  0.000  0.000  0.000  0.074
tot    0.807  0.008  0.004  0.000  0.000  0.001  0.000  0.000  0.010  0.829
 
band    14 # energy  -15.19272961 # occ.  1.00000000
 
ion      s     py     pz     px    dxy    dyz    dz2    dxz  x2-y2    tot
    1  0.024  0.000  0.003  0.000  0.000  0.000  0.000  0.000  0.003  0.030
    2  0.026  0.000  0.003  0.000  0.000  0.000  0.000  0.000  0.003  0.033
    3  0.024  0.000  0.003  0.000  0.000  0.000  0.000  0.000  0.003  0.030
    4  0.026  0.000  0.003  0.000  0.000  0.000  0.000  0.000  0.003  0.033
    5  0.142  0.002  0.000  0.000  0.000  0.000  0.000  0.000  0.000  0.144
    6  0.142  0.002  0.000  0.000  0.000  0.000  0.000  0.000  0.000  0.145
    7  0.119  0.002  0.000  0.000  0.000  0.000  0.000  0.000  0.000  0.121
    8  0.119  0.002  0.000  0.000  0.000  0.000  0.000  0.000  0.000  0.121
    9  0.052  0.001  0.001  0.000  0.000  0.000  0.000  0.000  0.000  0.053
   10  0.043  0.001  0.001  0.000  0.000  0.000  0.000  0.000  0.000  0.045
   11  0.053  0.001  0.001  0.000  0.000  0.000  0.000  0.000  0.000  0.054
   12  0.044  0.001  0.001  0.000  0.000  0.000  0.000  0.000  0.000  0.046
tot    0.813  0.011  0.018  0.000  0.000  0.002  0.000  0.000  0.011  0.856
 
band    15 # energy  -15.01642924 # occ.  1.00000000
 
ion      s     py     pz     px    dxy    dyz    dz2    dxz  x2-y2    tot
    1  0.015  0.000  0.003  0.000  0.000  0.002  0.004  0.000  0.004  0.028
    2  0.012  0.000  0.005  0.000  0.000  0.002  0.005  0.000  0.004  0.028
    3  0.015  0.000  0.003  0.000  0.000  0.002  0.004  0.000  0.004  0.028
    4  0.012  0.000  0.005  0.000  0.000  0.002  0.005  0.000  0.004  0.028
    5  0.044  0.001  0.000  0.000  0.000  0.000  0.000  0.000  0.000  0.045
    6  0.043  0.001  0.000  0.000  0.000  0.000  0.000  0.000  0.000  0.044
    7  0.024  0.000  0.000  0.000  0.000  0.000  0.000  0.000  0.000  0.025
    8  0.023  0.000  0.000  0.000  0.000  0.000  0.000  0.000  0.000  0.024
    9  0.154  0.000  0.000  0.000  0.000  0.000  0.000  0.000  0.000  0.154
   10  0.147  0.001  0.000  0.000  0.000  0.000  0.000  0.000  0.000  0.148
   11  0.154  0.000  0.000  0.000  0.000  0.000  0.000  0.000  0.000  0.154
   12  0.146  0.001  0.000  0.000  0.000  0.000  0.000  0.000  0.000  0.147
tot    0.789  0.004  0.018  0.000  0.000  0.008  0.019  0.000  0.016  0.854
 
band    16 # energy  -14.33137135 # occ.  1.00000000
 
ion      s     py     pz     px    dxy    dyz    dz2    dxz  x2-y2    tot
    1  0.008  0.000  0.001  0.000  0.000  0.005  0.007  0.000  0.005  0.026
    2  0.009  0.001  0.003  0.000  0.000  0.007  0.010  0.000  0.008  0.037
    3  0.008  0.000  0.001  0.000  0.000  0.005  0.007  0.000  0.005  0.026
    4  0.009  0.001  0.003  0.000  0.000  0.007  0.010  0.000  0.008  0.037
    5  0.059  0.001  0.000  0.000  0.000  0.000  0.000  0.000  0.000  0.060
    6  0.059  0.001  0.000  0.000  0.000  0.000  0.000  0.000  0.000  0.059
    7  0.035  0.001  0.000  0.000  0.000  0.000  0.000  0.000  0.000  0.036
    8  0.034  0.001  0.000  0.000  0.000  0.000  0.000  0.000  0.000  0.035
    9  0.181  0.001  0.001  0.000  0.000  0.000  0.000  0.000  0.000  0.182
   10  0.112  0.001  0.001  0.000  0.000  0.000  0.000  0.000  0.000  0.114
   11  0.182  0.001  0.001  0.000  0.000  0.000  0.000  0.000  0.000  0.183
   12  0.114  0.001  0.001  0.000  0.000  0.000  0.000  0.000  0.000  0.115
tot    0.809  0.007  0.012  0.000  0.000  0.023  0.033  0.000  0.026  0.911
 
band    17 # energy  -13.69710635 # occ.  1.00000000
 
ion      s     py     pz     px    dxy    dyz    dz2    dxz  x2-y2    tot
    1  0.001  0.004  0.007  0.000  0.000  0.004  0.005  0.000  0.004  0.024
    2  0.000  0.003  0.005  0.000  0.000  0.002  0.003  0.000  0.002  0.016
    3  0.001  0.004  0.007  0.000  0.000  0.004  0.005  0.000  0.004  0.024
    4  0.000  0.003  0.005  0.000  0.000  0.002  0.003  0.000  0.002  0.016
    5  0.043  0.000  0.000  0.000  0.000  0.000  0.000  0.000  0.000  0.043
    6  0.044  0.000  0.000  0.000  0.000  0.000  0.000  0.000  0.000  0.044
    7  0.057  0.000  0.000  0.000  0.000  0.000  0.000  0.000  0.000  0.058
    8  0.057  0.000  0.000  0.000  0.000  0.000  0.000  0.000  0.000  0.057
    9  0.112  0.000  0.000  0.000  0.000  0.000  0.000  0.000  0.000  0.112
   10  0.190  0.000  0.000  0.000  0.000  0.000  0.000  0.000  0.000  0.191
   11  0.110  0.000  0.000  0.000  0.000  0.000  0.000  0.000  0.000  0.110
   12  0.191  0.000  0.000  0.000  0.000  0.000  0.000  0.000  0.000  0.191
tot    0.806  0.017  0.025  0.000  0.000  0.012  0.015  0.000  0.013  0.887
 
band    18 # energy  -13.62950813 # occ.  1.00000000
 
ion      s     py     pz     px    dxy    dyz    dz2    dxz  x2-y2    tot
    1  0.000  0.003  0.012  0.000  0.000  0.000  0.003  0.000  0.001  0.019
    2  0.000  0.001  0.011  0.000  0.000  0.001  0.004  0.000  0.001  0.018
    3  0.000  0.003  0.012  0.000  0.000  0.000  0.003  0.000  0.001  0.019
    4  0.000  0.001  0.011  0.000  0.000  0.001  0.004  0.000  0.001  0.018
    5  0.113  0.001  0.001  0.000  0.000  0.000  0.000  0.000  0.000  0.115
    6  0.113  0.001  0.001  0.000  0.000  0.000  0.000  0.000  0.000  0.115
    7  0.073  0.001  0.001  0.000  0.000  0.000  0.000  0.000  0.000  0.075
    8  0.074  0.001  0.001  0.000  0.000  0.000  0.000  0.000  0.000  0.075
    9  0.081  0.000  0.000  0.000  0.000  0.000  0.000  0.000  0.000  0.081
   10  0.133  0.000  0.000  0.000  0.000  0.000  0.000  0.000  0.000  0.133
   11  0.081  0.000  0.000  0.000  0.000  0.000  0.000  0.000  0.000  0.081
   12  0.130  0.000  0.000  0.000  0.000  0.000  0.000  0.000  0.000  0.130
tot    0.799  0.011  0.050  0.000  0.000  0.002  0.013  0.000  0.004  0.879
 
band    19 # energy  -13.44263700 # occ.  1.00000000
 
ion      s     py     pz     px    dxy    dyz    dz2    dxz  x2-y2    tot
    1  0.002  0.007  0.000  0.000  0.000  0.001  0.005  0.000  0.000  0.015
    2  0.001  0.008  0.000  0.000  0.000  0.001  0.004  0.000  0.000  0.015
    3  0.002  0.007  0.000  0.000  0.000  0.001  0.005  0.000  0.000  0.015
    4  0.001  0.008  0.000  0.000  0.000  0.001  0.004  0.000  0.000  0.015
    5  0.135  0.000  0.000  0.000  0.000  0.000  0.000  0.000  0.000  0.136
    6  0.136  0.000  0.000  0.000  0.000  0.000  0.000  0.000  0.000  0.137
    7  0.167  0.000  0.000  0.000  0.000  0.000  0.000  0.000  0.000  0.168
    8  0.168  0.000  0.000  0.000  0.000  0.000  0.000  0.000  0.000  0.169
    9  0.050  0.000  0.000  0.000  0.000  0.000  0.000  0.000  0.000  0.050
   10  0.049  0.000  0.000  0.000  0.000  0.000  0.000  0.000  0.000  0.049
   11  0.050  0.000  0.000  0.000  0.000  0.000  0.000  0.000  0.000  0.050
   12  0.049  0.000  0.000  0.000  0.000  0.000  0.000  0.000  0.000  0.049
tot    0.811  0.031  0.002  0.000  0.000  0.005  0.018  0.000  0.001  0.867
 
band    20 # energy  -13.31037525 # occ.  1.00000000
 
ion      s     py     pz     px    dxy    dyz    dz2    dxz  x2-y2    tot
    1  0.002  0.005  0.000  0.000  0.000  0.003  0.007  0.000  0.000  0.018
    2  0.001  0.006  0.000  0.000  0.000  0.003  0.005  0.000  0.000  0.017
    3  0.002  0.005  0.000  0.000  0.000  0.003  0.007  0.000  0.000  0.018
    4  0.001  0.006  0.000  0.000  0.000  0.003  0.005  0.000  0.000  0.016
    5  0.134  0.000  0.000  0.000  0.000  0.000  0.000  0.000  0.000  0.135
    6  0.135  0.000  0.000  0.000  0.000  0.000  0.000  0.000  0.000  0.136
    7  0.199  0.001  0.001  0.000  0.000  0.000  0.000  0.000  0.000  0.200
    8  0.199  0.001  0.001  0.000  0.000  0.000  0.000  0.000  0.000  0.200
    9  0.046  0.000  0.000  0.000  0.000  0.000  0.000  0.000  0.000  0.046
   10  0.027  0.000  0.000  0.000  0.000  0.000  0.000  0.000  0.000  0.027
   11  0.045  0.000  0.000  0.000  0.000  0.000  0.000  0.000  0.000  0.045
   12  0.027  0.000  0.000  0.000  0.000  0.000  0.000  0.000  0.000  0.027
tot    0.818  0.024  0.004  0.000  0.000  0.013  0.025  0.000  0.000  0.885
 
band    21 # energy   -2.99457379 # occ.  1.00000000
 
ion      s     py     pz     px    dxy    dyz    dz2    dxz  x2-y2    tot
    1  0.013  0.000  0.001  0.000  0.000  0.013  0.000  0.000  0.004  0.031
    2  0.026  0.001  0.000  0.000  0.000  0.041  0.012  0.000  0.050  0.130
    3  0.013  0.000  0.001  0.000  0.000  0.013  0.000  0.000  0.004  0.031
    4  0.026  0.001  0.000  0.000  0.000  0.041  0.012  0.000  0.050  0.131
    5  0.000  0.006  0.013  0.000  0.000  0.000  0.000  0.000  0.000  0.019
    6  0.000  0.006  0.013  0.000  0.000  0.000  0.000  0.000  0.000  0.019
    7  0.002  0.014  0.043  0.000  0.000  0.000  0.000  0.000  0.000  0.059
    8  0.002  0.014  0.043  0.000  0.000  0.000  0.000  0.000  0.000  0.059
    9  0.005  0.071  0.042  0.000  0.000  0.000  0.000  0.000  0.000  0.117
   10  0.001  0.011  0.011  0.000  0.000  0.000  0.000  0.000  0.000  0.023
   11  0.005  0.071  0.042  0.000  0.000  0.000  0.000  0.000  0.000  0.117
   12  0.001  0.011  0.011  0.000  0.000  0.000  0.000  0.000  0.000  0.023
tot    0.095  0.204  0.220  0.000  0.000  0.109  0.024  0.000  0.108  0.759
 
band    22 # energy   -2.59431230 # occ.  1.00000000
 
ion      s     py     pz     px    dxy    dyz    dz2    dxz  x2-y2    tot
    1  0.000  0.001  0.000  0.000  0.000  0.003  0.000  0.000  0.000  0.004
    2  0.003  0.001  0.002  0.000  0.000  0.002  0.047  0.000  0.137  0.192
    3  0.000  0.001  0.000  0.000  0.000  0.003  0.000  0.000  0.000  0.004
    4  0.003  0.001  0.002  0.000  0.000  0.002  0.047  0.000  0.137  0.193
    5  0.000  0.000  0.002  0.000  0.000  0.000  0.000  0.000  0.000  0.002
    6  0.000  0.000  0.002  0.000  0.000  0.000  0.000  0.000  0.000  0.002
    7  0.002  0.044  0.003  0.000  0.000  0.000  0.000  0.000  0.000  0.049
    8  0.002  0.044  0.003  0.000  0.000  0.000  0.000  0.000  0.000  0.049
    9  0.002  0.058  0.086  0.000  0.000  0.000  0.000  0.000  0.000  0.146
   10  0.000  0.000  0.000  0.000  0.000  0.000  0.000  0.000  0.000  0.001
   11  0.002  0.058  0.086  0.000  0.000  0.000  0.000  0.000  0.000  0.146
   12  0.000  0.000  0.001  0.000  0.000  0.000  0.000  0.000  0.000  0.001
tot    0.015  0.208  0.187  0.000  0.000  0.010  0.095  0.000  0.274  0.790
 
band    23 # energy   -2.29069041 # occ.  1.00000000
 
ion      s     py     pz     px    dxy    dyz    dz2    dxz  x2-y2    tot
    1  0.016  0.005  0.002  0.000  0.000  0.003  0.016  0.000  0.041  0.083
    2  0.000  0.004  0.004  0.000  0.000  0.004  0.010  0.000  0.029  0.050
    3  0.016  0.004  0.002  0.000  0.000  0.003  0.016  0.000  0.041  0.083
    4  0.000  0.004  0.004  0.000  0.000  0.004  0.010  0.000  0.028  0.050
    5  0.002  0.025  0.056  0.000  0.000  0.000  0.000  0.000  0.000  0.084
    6  0.002  0.025  0.056  0.000  0.000  0.000  0.000  0.000  0.000  0.083
    7  0.001  0.006  0.007  0.000  0.000  0.000  0.000  0.000  0.000  0.014
    8  0.001  0.006  0.007  0.000  0.000  0.000  0.000  0.000  0.000  0.013
    9  0.001  0.030  0.002  0.000  0.000  0.000  0.000  0.000  0.000  0.033
   10  0.004  0.079  0.031  0.000  0.000  0.000  0.000  0.000  0.000  0.114
   11  0.001  0.030  0.002  0.000  0.000  0.000  0.000  0.000  0.000  0.033
   12  0.004  0.079  0.031  0.000  0.000  0.000  0.000  0.000  0.000  0.114
tot    0.050  0.296  0.205  0.000  0.000  0.013  0.052  0.000  0.139  0.754
 
band    24 # energy   -2.12631459 # occ.  1.00000000
 
ion      s     py     pz     px    dxy    dyz    dz2    dxz  x2-y2    tot
    1  0.000  0.000  0.000  0.000  0.011  0.000  0.000  0.024  0.000  0.035
    2  0.000  0.000  0.000  0.003  0.076  0.000  0.000  0.134  0.000  0.213
    3  0.000  0.000  0.000  0.000  0.012  0.000  0.000  0.026  0.000  0.038
    4  0.000  0.000  0.000  0.003  0.084  0.000  0.000  0.144  0.000  0.232
    5  0.000  0.000  0.000  0.021  0.000  0.000  0.000  0.000  0.000  0.021
    6  0.000  0.000  0.000  0.019  0.000  0.000  0.000  0.000  0.000  0.019
    7  0.000  0.000  0.000  0.036  0.000  0.000  0.000  0.000  0.000  0.036
    8  0.000  0.000  0.000  0.040  0.000  0.000  0.000  0.000  0.000  0.040
    9  0.000  0.000  0.000  0.126  0.000  0.000  0.000  0.000  0.000  0.126
   10  0.000  0.000  0.000  0.018  0.000  0.000  0.000  0.000  0.000  0.018
   11  0.000  0.000  0.000  0.137  0.000  0.000  0.000  0.000  0.000  0.137
   12  0.000  0.000  0.000  0.017  0.000  0.000  0.000  0.000  0.000  0.017
tot    0.000  0.000  0.000  0.420  0.183  0.000  0.000  0.327  0.000  0.930
 
band    25 # energy   -2.07572408 # occ.  1.00000000
 
ion      s     py     pz     px    dxy    dyz    dz2    dxz  x2-y2    tot
    1  0.000  0.000  0.000  0.000  0.015  0.000  0.000  0.026  0.000  0.042
    2  0.000  0.000  0.000  0.001  0.106  0.000  0.000  0.118  0.000  0.225
    3  0.000  0.000  0.000  0.000  0.014  0.000  0.000  0.024  0.000  0.038
    4  0.000  0.000  0.000  0.001  0.099  0.000  0.000  0.107  0.000  0.207
    5  0.000  0.000  0.000  0.022  0.000  0.000  0.000  0.000  0.000  0.022
    6  0.000  0.000  0.000  0.024  0.000  0.000  0.000  0.000  0.000  0.024
    7  0.000  0.000  0.000  0.055  0.000  0.000  0.000  0.000  0.000  0.055
    8  0.000  0.000  0.000  0.051  0.000  0.000  0.000  0.000  0.000  0.051
    9  0.000  0.000  0.000  0.119  0.000  0.000  0.000  0.000  0.000  0.119
   10  0.000  0.000  0.000  0.017  0.000  0.000  0.000  0.000  0.000  0.017
   11  0.000  0.000  0.000  0.109  0.000  0.000  0.000  0.000  0.000  0.109
   12  0.000  0.000  0.000  0.019  0.000  0.000  0.000  0.000  0.000  0.019
tot    0.000  0.000  0.000  0.418  0.233  0.000  0.000  0.276  0.000  0.927
 
band    26 # energy   -2.06138291 # occ.  1.00000000
 
ion      s     py     pz     px    dxy    dyz    dz2    dxz  x2-y2    tot
    1  0.006  0.001  0.003  0.000  0.000  0.004  0.034  0.000  0.087  0.135
    2  0.000  0.001  0.000  0.000  0.000  0.013  0.005  0.000  0.001  0.019
    3  0.006  0.001  0.003  0.000  0.000  0.004  0.034  0.000  0.087  0.134
    4  0.000  0.001  0.000  0.000  0.000  0.013  0.005  0.000  0.001  0.020
    5  0.003  0.074  0.004  0.000  0.000  0.000  0.000  0.000  0.000  0.081
    6  0.003  0.074  0.004  0.000  0.000  0.000  0.000  0.000  0.000  0.081
    7  0.000  0.001  0.000  0.000  0.000  0.000  0.000  0.000  0.000  0.001
    8  0.000  0.001  0.000  0.000  0.000  0.000  0.000  0.000  0.000  0.001
    9  0.000  0.001  0.001  0.000  0.000  0.000  0.000  0.000  0.000  0.002
   10  0.002  0.052  0.090  0.000  0.000  0.000  0.000  0.000  0.000  0.143
   11  0.000  0.001  0.001  0.000  0.000  0.000  0.000  0.000  0.000  0.002
   12  0.002  0.052  0.090  0.000  0.000  0.000  0.000  0.000  0.000  0.144
tot    0.022  0.258  0.196  0.000  0.000  0.033  0.079  0.000  0.176  0.762
 
band    27 # energy   -1.78205241 # occ.  1.00000000
 
ion      s     py     pz     px    dxy    dyz    dz2    dxz  x2-y2    tot
    1  0.002  0.000  0.004  0.000  0.000  0.000  0.039  0.000  0.002  0.047
    2  0.002  0.000  0.002  0.000  0.000  0.001  0.103  0.000  0.017  0.125
    3  0.002  0.000  0.004  0.000  0.000  0.000  0.039  0.000  0.001  0.047
    4  0.002  0.000  0.002  0.000  0.000  0.001  0.103  0.000  0.017  0.126
    5  0.003  0.034  0.040  0.000  0.000  0.000  0.000  0.000  0.000  0.077
    6  0.003  0.034  0.040  0.000  0.000  0.000  0.000  0.000  0.000  0.077
    7  0.002  0.030  0.041  0.000  0.000  0.000  0.000  0.000  0.000  0.072
    8  0.002  0.030  0.041  0.000  0.000  0.000  0.000  0.000  0.000  0.073