<?xml version="1.0" encoding="ISO-8859-1"?>
<modeling>
 <generator>
  <i name="program" type="string">vasp </i>
  <i name="version" type="string">5.4.4.18Apr17-6-g9f103f2a35  </i>
  <i name="subversion" type="string">(build Nov 08 2022 17:27:33) complex            parallel </i>
  <i name="platform" type="string">LinuxIFC </i>
  <i name="date" type="string">2022 11 22 </i>
  <i name="time" type="string">17:13:32 </i>
 </generator>
 <incar>
  <i type="string" name="PREC">accurate</i>
  <i type="string" name="ALGO"> Fast</i>
  <i type="int" name="ISPIN">     2</i>
  <i type="int" name="NELM">    40</i>
  <i type="int" name="IBRION">     2</i>
  <i name="EDIFF">      0.00001000</i>
  <i name="EDIFFG">     -0.03000000</i>
  <i type="int" name="NSW">   199</i>
  <i type="int" name="ISIF">     2</i>
  <i type="int" name="ISYM">     0</i>
  <i name="ENCUT">    400.00000000</i>
  <i name="ENAUG">    800.00000000</i>
  <v name="MAGMOM">     -5.00000000      5.00000000     -5.00000000      5.00000000      0.00000000      0.00000000      0.00000000      0.00000000      0.00000000      0.00000000      0.00000000      0.00000000</v>
  <i type="string" name="LREAL"> Auto</i>
  <i type="int" name="ISMEAR">     0</i>
  <i name="SIGMA">      0.01000000</i>
  <i type="int" name="LMAXMIX">     4</i>
  <i type="logical" name="LWAVE"> T  </i>
  <i type="int" name="LORBIT">    11</i>
  <i type="logical" name="LASPH"> T  </i>
  <v type="int" name="KPOINT_BSE">    -1     0     0     0</v>
  <i type="int" name="NELM">    40</i>
  <i type="string" name="GGA"> Pe</i>
  <i type="logical" name="LASPH"> T  </i>
 </incar>
 <structure name="primitive_cell" >
  <crystal>
   <varray name="basis" >
    <v>       2.91633100       0.00000000       0.00000000 </v>
    <v>      -0.00000100       4.58096600       0.00014500 </v>
    <v>       0.00000200       0.00030000       9.43439300 </v>
   </varray>
   <i name="volume">    126.03984071 </i>
   <varray name="rec_basis" >
    <v>       0.34289661       0.00000007      -0.00000007 </v>
    <v>       0.00000000       0.21829457      -0.00000694 </v>
    <v>       0.00000000      -0.00000336       0.10599516 </v>
   </varray>
  </crystal>
  <varray name="positions" >
   <v>       0.25000000       0.02126500      -0.13498600 </v>
   <v>      -0.25000000      -0.19132300      -0.21630800 </v>
   <v>       0.25000000       0.30854000      -0.28375200 </v>
   <v>      -0.25000000       0.21232300      -0.03694800 </v>
   <v>       0.25000000      -0.21232200       0.03695300 </v>
   <v>      -0.25000100      -0.02125900       0.13499200 </v>
   <v>       0.25000000      -0.28755300      -0.46307000 </v>
   <v>       0.25000000       0.19132200       0.21631000 </v>
   <v>      -0.25000000      -0.47869000      -0.36503200 </v>
   <v>      -0.25000000       0.28755100       0.46306600 </v>
   <v>      -0.25000000      -0.30854200       0.28375200 </v>
   <v>       0.25000100       0.47868900       0.36502400 </v>
  </varray>
 </structure>
 <varray name="primitive_index" >
  <v type="int" >        1 </v>
  <v type="int" >       12 </v>
  <v type="int" >       10 </v>
  <v type="int" >        6 </v>
  <v type="int" >        7 </v>
  <v type="int" >        2 </v>
  <v type="int" >        5 </v>
  <v type="int" >        9 </v>
  <v type="int" >        3 </v>
  <v type="int" >        8 </v>
  <v type="int" >       11 </v>
  <v type="int" >        4 </v>
 </varray>
 <kpoints>
  <generation param="Gamma">
   <v type="int" name="divisions">       1        1        1 </v>
   <v name="usershift">      0.00000000       0.00000000       0.00000000 </v>
   <v name="genvec1">      1.00000000       0.00000000      -0.00000000 </v>
   <v name="genvec2">      0.00000000       1.00000000       0.00000000 </v>
   <v name="genvec3">      0.00000000       0.00000000       1.00000000 </v>
   <v name="shift">      0.00000000       0.00000000       0.00000000 </v>
  </generation>
  <varray name="kpointlist" >
   <v>       0.00000000       0.00000000       0.00000000 </v>
  </varray>
  <varray name="weights" >
   <v>       1.00000000 </v>
  </varray>
 </kpoints>
 <parameters>
  <separator name="general" >
   <i type="string" name="SYSTEM">unknown system</i>
   <i type="logical" name="LCOMPAT"> F  </i>
  </separator>
  <separator name="electronic" >
   <i type="string" name="PREC">accura</i>
   <i name="ENMAX">    400.00000000</i>
   <i name="ENAUG">    800.00000000</i>
   <i name="EDIFF">      0.00001000</i>
   <i type="int" name="IALGO">    68</i>
   <i type="int" name="IWAVPR">    11</i>
   <i type="int" name="NBANDS">    60</i>
   <i name="NELECT">    100.00000000</i>
   <i type="int" name="TURBO">     0</i>
   <i type="int" name="IRESTART">     0</i>
   <i type="int" name="NREBOOT">     0</i>
   <i type="int" name="NMIN">     0</i>
   <i name="EREF">      0.00000000</i>
   <separator name="electronic smearing" >
    <i type="int" name="ISMEAR">     0</i>
    <i name="SIGMA">      0.01000000</i>
    <i name="KSPACING">      0.50000000</i>
    <i type="logical" name="KGAMMA"> T  </i>
   </separator>
   <separator name="electronic projectors" >
    <i type="logical" name="LREAL"> T  </i>
    <v name="ROPT">     -0.00025000     -0.00025000</v>
    <i type="int" name="LMAXPAW">  -100</i>
    <i type="int" name="LMAXMIX">     4</i>
    <i type="logical" name="NLSPLINE"> F  </i>
   </separator>
   <separator name="electronic startup" >
    <i type="int" name="ISTART">     0</i>
    <i type="int" name="ICHARG">     2</i>
    <i type="int" name="INIWAV">     1</i>
   </separator>
   <separator name="electronic spin" >
    <i type="int" name="ISPIN">     2</i>
    <i type="logical" name="LNONCOLLINEAR"> F  </i>
    <v name="MAGMOM">     -5.00000000      5.00000000     -5.00000000      5.00000000      0.00000000      0.00000000      0.00000000      0.00000000      0.00000000      0.00000000      0.00000000      0.00000000</v>
    <i name="NUPDOWN">     -1.00000000</i>
    <i type="logical" name="LSORBIT"> F  </i>
    <v name="SAXIS">      0.00000000      0.00000000      1.00000000</v>
    <i type="logical" name="LSPIRAL"> F  </i>
    <v name="QSPIRAL">      0.00000000      0.00000000      0.00000000</v>
    <i type="logical" name="LZEROZ"> F  </i>
   </separator>
   <separator name="electronic exchange-correlation" >
    <i type="logical" name="LASPH"> T  </i>
    <i type="logical" name="LMETAGGA"> F  </i>
   </separator>
   <separator name="electronic convergence" >
    <i type="int" name="NELM">    40</i>
    <i type="int" name="NELMDL">    -5</i>
    <i type="int" name="NELMIN">     2</i>
    <i name="ENINI">    400.00000000</i>
    <separator name="electronic convergence detail" >
     <i type="logical" name="LDIAG"> T  </i>
     <i type="logical" name="LSUBROT"> F  </i>
     <i name="WEIMIN">      0.00100000</i>
     <i name="EBREAK">      0.00000004</i>
     <i name="DEPER">      0.30000000</i>
     <i type="int" name="NRMM">     4</i>
     <i name="TIME">      0.40000000</i>
    </separator>
   </separator>
   <separator name="electronic mixer" >
    <i name="AMIX">      0.40000000</i>
    <i name="BMIX">      1.00000000</i>
    <i name="AMIN">      0.10000000</i>
    <i name="AMIX_MAG">      1.60000000</i>
    <i name="BMIX_MAG">      1.00000000</i>
    <separator name="electronic mixer details" >
     <i type="int" name="IMIX">     4</i>
     <i type="logical" name="MIXFIRST"> F  </i>
     <i type="int" name="MAXMIX">   -45</i>
     <i name="WC">    100.00000000</i>
     <i type="int" name="INIMIX">     1</i>
     <i type="int" name="MIXPRE">     1</i>
     <i type="int" name="MREMOVE">     5</i>
    </separator>
   </separator>
   <separator name="electronic dipolcorrection" >
    <i type="logical" name="LDIPOL"> F  </i>
    <i type="logical" name="LMONO"> F  </i>
    <i type="int" name="IDIPOL">     0</i>
    <i name="EPSILON">      1.00000000</i>
    <v name="DIPOL">   -100.00000000   -100.00000000   -100.00000000</v>
    <i name="EFIELD">      0.00000000</i>
   </separator>
  </separator>
  <separator name="grids" >
   <i type="int" name="NGX">    20</i>
   <i type="int" name="NGY">    30</i>
   <i type="int" name="NGZ">    64</i>
   <i type="int" name="NGXF">    40</i>
   <i type="int" name="NGYF">    60</i>
   <i type="int" name="NGZF">   128</i>
   <i type="logical" name="ADDGRID"> F  </i>
  </separator>
  <separator name="ionic" >
   <i type="int" name="NSW">   199</i>
   <i type="int" name="IBRION">     2</i>
   <i type="int" name="MDALGO">     0</i>
   <i type="int" name="ISIF">     2</i>
   <i name="PSTRESS">      0.00000000</i>
   <i name="EDIFFG">     -0.03000000</i>
   <i type="int" name="NFREE">     1</i>
   <i name="POTIM">      0.50000000</i>
   <i name="SMASS">     -3.00000000</i>
   <i name="SCALEE">      1.00000000</i>
  </separator>
  <separator name="ionic md" >
   <i name="TEBEG">      0.00010000</i>
   <i name="TEEND">      0.00010000</i>
   <i type="int" name="NBLOCK">     1</i>
   <i type="int" name="KBLOCK">   199</i>
   <i type="int" name="NPACO">   256</i>
   <i name="APACO">     16.00000000</i>
  </separator>
  <separator name="symmetry" >
   <i type="int" name="ISYM">     0</i>
   <i name="SYMPREC">      0.00001000</i>
  </separator>
  <separator name="dos" >
   <i type="int" name="LORBIT">    11</i>
   <v name="RWIGS">     -1.00000000     -1.00000000</v>
   <i type="int" name="NEDOS">   301</i>
   <i name="EMIN">     10.00000000</i>
   <i name="EMAX">    -10.00000000</i>
   <i name="EFERMI">      0.00000000</i>
  </separator>
  <separator name="writing" >
   <i type="int" name="NWRITE">     2</i>
   <i type="logical" name="LWAVE"> T  </i>
   <i type="logical" name="LDOWNSAMPLE"> F  </i>
   <i type="logical" name="LCHARG"> T  </i>
   <i type="logical" name="LPARD"> F  </i>
   <i type="logical" name="LVTOT"> F  </i>
   <i type="logical" name="LVHAR"> F  </i>
   <i type="logical" name="LELF"> F  </i>
   <i type="logical" name="LOPTICS"> F  </i>
   <v name="STM">      0.00000000      0.00000000      0.00000000      0.00000000      0.00000000      0.00000000      0.00000000</v>
  </separator>
  <separator name="performance" >
   <i type="int" name="NPAR">     4</i>
   <i type="int" name="NSIM">     4</i>
   <i type="int" name="NBLK">    -1</i>
   <i type="logical" name="LPLANE"> T  </i>
   <i type="logical" name="LSCALAPACK"> T  </i>
   <i type="logical" name="LSCAAWARE"> F  </i>
   <i type="logical" name="LSCALU"> F  </i>
   <i type="logical" name="LASYNC"> F  </i>
   <i type="logical" name="LORBITALREAL"> F  </i>
  </separator>
  <separator name="miscellaneous" >
   <i type="int" name="IDIOT">     3</i>
   <i type="int" name="ISPECIAL">     0</i>
   <i type="logical" name="LMUSIC"> F  </i>
   <v name="POMASS">     54.93800000     16.00000000</v>
   <v name="DARWINR">      0.00000000      0.00000000</v>
   <v name="DARWINV">      1.00000000      1.00000000</v>
   <i type="logical" name="LCORR"> T  </i>
  </separator>
  <i type="logical" name="GGA_COMPAT"> T  </i>
  <i type="logical" name="LBERRY"> F  </i>
  <i type="int" name="ICORELEVEL">     0</i>
  <i type="logical" name="LDAU"> F  </i>
  <i type="int" name="I_CONSTRAINED_M">     0</i>
  <separator name="electronic exchange-correlation" >
   <i type="string" name="GGA">PE</i>
   <i type="int" name="VOSKOWN">     0</i>
   <i type="logical" name="LHFCALC"> F  </i>
   <i type="string" name="PRECFOCK"></i>
   <i type="logical" name="LSYMGRAD"> F  </i>
   <i type="logical" name="LHFONE"> F  </i>
   <i type="logical" name="LRHFCALC"> F  </i>
   <i type="logical" name="LTHOMAS"> F  </i>
   <i type="logical" name="LMODELHF"> F  </i>
   <i name="ENCUT4O">     -1.00000000</i>
   <i type="int" name="EXXOEP">     0</i>
   <i type="int" name="FOURORBIT">     0</i>
   <i name="AEXX">      0.00000000</i>
   <i name="HFALPHA">      0.00000000</i>
   <i name="MCALPHA">      0.00000000</i>
   <i name="ALDAX">      1.00000000</i>
   <i name="AGGAX">      1.00000000</i>
   <i name="ALDAC">      1.00000000</i>
   <i name="AGGAC">      1.00000000</i>
   <i type="int" name="NKREDX">     1</i>
   <i type="int" name="NKREDY">     1</i>
   <i type="int" name="NKREDZ">     1</i>
   <i type="logical" name="SHIFTRED"> F  </i>
   <i type="logical" name="ODDONLY"> F  </i>
   <i type="logical" name="EVENONLY"> F  </i>
   <i type="int" name="LMAXFOCK">     0</i>
   <i type="int" name="NMAXFOCKAE">     0</i>
   <i type="logical" name="LFOCKAEDFT"> F  </i>
   <i name="HFSCREEN">      0.00000000</i>
   <i name="HFSCREENC">      0.00000000</i>
   <i type="int" name="NBANDSGWLOW">     0</i>
  </separator>
  <separator name="vdW DFT" >
   <i type="logical" name="LUSE_VDW"> F  </i>
   <i name="Zab_VDW">     -0.84910000</i>
   <i name="PARAM1">      0.12340000</i>
   <i name="PARAM2">      1.00000000</i>
   <i name="PARAM3">      0.00000000</i>
  </separator>
  <separator name="model GW" >
   <i type="int" name="MODEL_GW">     0</i>
   <i name="MODEL_EPS0">      6.30199204</i>
   <i name="MODEL_ALPHA">      1.00000000</i>
  </separator>
  <separator name="linear response parameters" >
   <i type="logical" name="LEPSILON"> F  </i>
   <i type="logical" name="LRPA"> F  </i>
   <i type="logical" name="LNABLA"> F  </i>
   <i type="logical" name="LVEL"> F  </i>
   <i type="int" name="KINTER">     0</i>
   <i name="CSHIFT">      0.10000000</i>
   <i name="OMEGAMAX">     -1.00000000</i>
   <i name="DEG_THRESHOLD">      0.00200000</i>
   <i name="RTIME">     -0.10000000</i>
   <i name="WPLASMAI">      0.00000000</i>
   <v name="DFIELD">      0.00000000      0.00000000      0.00000000</v>
   <v name="WPLASMA">      0.00000000      0.00000000      0.00000000      0.00000000      0.00000000      0.00000000      0.00000000      0.00000000      0.00000000</v>
  </separator>
  <separator name="orbital magnetization" >
   <i type="logical" name="NUCIND"> F  </i>
   <v name="MAGPOS">      0.00000000      0.00000000      0.00000000</v>
   <i type="logical" name="LNICSALL"> T  </i>
   <i type="logical" name="ORBITALMAG"> F  </i>
   <i type="logical" name="LMAGBLOCH"> F  </i>
   <i type="logical" name="LCHIMAG"> F  </i>
   <i type="logical" name="LGAUGE"> T  </i>
   <i type="int" name="MAGATOM">     0</i>
   <v name="MAGDIPOL">      0.00000000      0.00000000      0.00000000</v>
   <v name="AVECCONST">      0.00000000      0.00000000      0.00000000</v>
  </separator>
  <separator name="response functions" >
   <i type="logical" name="LADDER"> F  </i>
   <i type="logical" name="LRPAFORCE"> F  </i>
   <i type="logical" name="LFXC"> F  </i>
   <i type="logical" name="LHARTREE"> T  </i>
   <i type="int" name="IBSE">     0</i>
   <v type="int" name="KPOINT">    -1     0     0     0</v>
   <i type="logical" name="LTCTE"> F  </i>
   <i type="logical" name="LTETE"> F  </i>
   <i type="logical" name="LTRIPLET"> F  </i>
   <i type="logical" name="LFXCEPS"> F  </i>
   <i type="logical" name="LFXHEG"> F  </i>
   <i type="int" name="NATURALO">     2</i>
   <i type="logical" name="L2ORDER"> F  </i>
   <i type="logical" name="LMP2LT"> F  </i>
   <i type="logical" name="LUSEW"> F  </i>
   <i name="ENCUTGW">     -2.00000000</i>
   <i name="ENCUTGWSOFT">     -2.00000000</i>
   <i name="ENCUTLF">     -1.00000000</i>
   <i type="int" name="LMAXMP2">    -1</i>
   <i name="SCISSOR">      0.00000000</i>
   <i type="int" name="NOMEGA">     0</i>
   <i type="int" name="NOMEGAR">     0</i>
   <i type="int" name="NBANDSGW">    -1</i>
   <i type="int" name="NBANDSO">    -1</i>
   <i type="int" name="NBANDSV">    -1</i>
   <i type="int" name="NELM">    40</i>
   <i type="int" name="NELMHF">     1</i>
   <i type="int" name="DIM">     3</i>
   <i type="int" name="ANTIRES">     0</i>
   <i name="OMEGAMAX">    -30.00000000</i>
   <i name="OMEGAMIN">    -30.00000000</i>
   <i name="OMEGATL">   -200.00000000</i>
   <i type="int" name="OMEGAGRID">   140</i>
   <i name="CSHIFT">     -0.10000000</i>
   <i type="logical" name="SELFENERGY"> F  </i>
   <i type="logical" name="LSPECTRAL"> F  </i>
   <i type="logical" name="LSPECTRALGW"> F  </i>
   <i type="logical" name="LSINGLES"> F  </i>
   <i type="logical" name="LFERMIGW"> F  </i>
   <i type="logical" name="ODDONLYGW"> F  </i>
   <i type="logical" name="EVENONLYGW"> F  </i>
   <i type="int" name="NKREDLFX">     1</i>
   <i type="int" name="NKREDLFY">     1</i>
   <i type="int" name="NKREDLFZ">     1</i>
   <i type="int" name="MAXMEM">  2800</i>
   <i type="int" name="TELESCOPE">     0</i>
   <i type="int" name="TAUPAR">     1</i>
   <i type="int" name="OMEGAPAR">    -1</i>
   <i name="LAMBDA">      1.00000000</i>
  </separator>
  <separator name="External order field" >
   <i name="OFIELD_KAPPA">      0.00000000</i>
   <v name="OFIELD_K">      0.00000000      0.00000000      0.00000000</v>
   <i name="OFIELD_Q6_NEAR">      0.00000000</i>
   <i name="OFIELD_Q6_FAR">      0.00000000</i>
   <i name="OFIELD_A">      0.00000000</i>
  </separator>
 </parameters>
 <atominfo>
  <atoms>      12 </atoms>
  <types>       2 </types>
  <array name="atoms" >
   <dimension dim="1">ion</dimension>
   <field type="string">element</field>
   <field type="int">atomtype</field>
   <set>
    <rc><c>Mn</c><c>   1</c></rc>
    <rc><c>Mn</c><c>   1</c></rc>
    <rc><c>Mn</c><c>   1</c></rc>
    <rc><c>Mn</c><c>   1</c></rc>
    <rc><c>O </c><c>   2</c></rc>
    <rc><c>O </c><c>   2</c></rc>
    <rc><c>O </c><c>   2</c></rc>
    <rc><c>O </c><c>   2</c></rc>
    <rc><c>O </c><c>   2</c></rc>
    <rc><c>O </c><c>   2</c></rc>
    <rc><c>O </c><c>   2</c></rc>
    <rc><c>O </c><c>   2</c></rc>
   </set>
  </array>
  <array name="atomtypes" >
   <dimension dim="1">type</dimension>
   <field type="int">atomspertype</field>
   <field type="string">element</field>
   <field>mass</field>
   <field>valence</field>
   <field type="string">pseudopotential</field>
   <set>
    <rc><c>   4</c><c>Mn</c><c>     54.93800000</c><c>     13.00000000</c><c>  PAW_PBE Mn_pv 02Aug2007               </c></rc>
    <rc><c>   8</c><c>O </c><c>     16.00000000</c><c>      6.00000000</c><c>  PAW_PBE O 08Apr2002                   </c></rc>
   </set>
  </array>
 </atominfo>
 <structure name="initialpos" >
  <crystal>
   <varray name="basis" >
    <v>       2.91633100       0.00000000       0.00000000 </v>
    <v>      -0.00000100       4.58096600       0.00014500 </v>
    <v>       0.00000200       0.00030000       9.43439300 </v>
   </varray>
   <i name="volume">    126.03984071 </i>
   <varray name="rec_basis" >
    <v>       0.34289661       0.00000007      -0.00000007 </v>
    <v>       0.00000000       0.21829457      -0.00000694 </v>
    <v>       0.00000000      -0.00000336       0.10599516 </v>
   </varray>
  </crystal>
  <varray name="positions" >
   <v>       0.25000000       0.02126500       0.86501400 </v>
   <v>       0.74999900       0.97874100       0.13499200 </v>
   <v>       0.75000000       0.52131000       0.63496800 </v>
   <v>       0.25000100       0.47868900       0.36502400 </v>
   <v>       0.25000000       0.71244700       0.53693000 </v>
   <v>       0.75000000       0.21232300       0.96305200 </v>
   <v>       0.25000000       0.78767800       0.03695300 </v>
   <v>       0.75000000       0.28755100       0.46306600 </v>
   <v>       0.25000000       0.19132200       0.21631000 </v>
   <v>       0.25000000       0.30854000       0.71624800 </v>
   <v>       0.75000000       0.69145800       0.28375200 </v>
   <v>       0.75000000       0.80867700       0.78369200 </v>
  </varray>
 </structure>
 <calculation>
  <scstep>
   <time name="dav">    0.10    0.19</time>
   <time name="total">    0.57    0.67</time>
   <energy>
    <i name="alphaZ">    441.37612112 </i>
    <i name="ewald">  -7485.64291034 </i>
    <i name="hartreedc">  -3708.68415669 </i>
    <i name="XCdc">    504.34541927 </i>
    <i name="pawpsdc">   9348.48672290 </i>
    <i name="pawaedc">  -9564.88662345 </i>
    <i name="eentropy">     -0.00000000 </i>
    <i name="bandstr">    215.90852761 </i>
    <i name="atom">  11559.05757976 </i>
    <i name="e_fr_energy">   1309.96068017 </i>
    <i name="e_wo_entrp">   1309.96068017 </i>
    <i name="e_0_energy">   1309.96068017 </i>
   </energy>
  </scstep>
  <scstep>
   <time name="dav">    0.09    0.18</time>
   <time name="total">    0.09    0.18</time>
   <energy>
    <i name="e_fr_energy">     86.51769742 </i>
    <i name="e_wo_entrp">     86.51769742 </i>
    <i name="e_0_energy">     86.51769742 </i>
   </energy>
  </scstep>
  <scstep>
   <time name="dav">    0.19    0.20</time>
   <time name="total">    0.19    0.20</time>
   <energy>
    <i name="e_fr_energy">   -109.45663952 </i>
    <i name="e_wo_entrp">   -109.45663952 </i>
    <i name="e_0_energy">   -109.45663952 </i>
   </energy>
  </scstep>
  <scstep>
   <time name="dav">    0.17    0.18</time>
   <time name="total">    0.18    0.18</time>
   <energy>
    <i name="e_fr_energy">   -120.90479485 </i>
    <i name="e_wo_entrp">   -120.90479485 </i>
    <i name="e_0_energy">   -120.90479485 </i>
   </energy>
  </scstep>
  <scstep>
   <time name="dav">    0.18    0.18</time>
   <time name="total">    0.19    0.19</time>
   <energy>
    <i name="e_fr_energy">   -121.40540066 </i>
    <i name="e_wo_entrp">   -121.40540066 </i>
    <i name="e_0_energy">   -121.40540066 </i>
   </energy>
  </scstep>
  <scstep>
   <time name="diag">    0.03    0.03</time>
   <time name="diis">    0.14    0.14</time>
   <time name="orth">    0.00    0.00</time>
   <time name="total">    0.49    0.66</time>
   <energy>
    <i name="e_fr_energy">   -122.44064499 </i>
    <i name="e_wo_entrp">   -122.43400711 </i>
    <i name="e_0_energy">   -122.43732605 </i>
   </energy>
  </scstep>
  <scstep>
   <time name="diag">    0.03    0.03</time>
   <time name="diis">    0.05    0.09</time>
   <time name="orth">    0.00    0.00</time>
   <time name="total">    0.42    0.72</time>
   <energy>
    <i name="e_fr_energy">    -91.33918087 </i>
    <i name="e_wo_entrp">    -91.33918087 </i>
    <i name="e_0_energy">    -91.33918087 </i>
   </energy>
  </scstep>
  <scstep>
   <time name="diag">    0.03    0.03</time>
   <time name="diis">    0.11    0.11</time>
   <time name="orth">    0.00    0.00</time>
   <time name="total">    0.69    0.72</time>
   <energy>
    <i name="e_fr_energy">    -92.32966820 </i>
    <i name="e_wo_entrp">    -92.32966820 </i>
    <i name="e_0_energy">    -92.32966820 </i>
   </energy>
  </scstep>
  <scstep>
   <time name="diag">    0.03    0.03</time>
   <time name="diis">    0.11    0.11</time>
   <time name="orth">    0.00    0.00</time>
   <time name="total">    0.62    0.65</time>
   <energy>
    <i name="e_fr_energy">    -91.32596651 </i>
    <i name="e_wo_entrp">    -91.32596651 </i>
    <i name="e_0_energy">    -91.32596651 </i>
   </energy>
  </scstep>
  <scstep>
   <time name="diag">    0.03    0.03</time>
   <time name="diis">    0.09    0.09</time>
   <time name="orth">    0.00    0.01</time>
   <time name="total">    0.65    0.66</time>
   <energy>
    <i name="e_fr_energy">    -91.37314688 </i>
    <i name="e_wo_entrp">    -91.37314688 </i>
    <i name="e_0_energy">    -91.37314688 </i>
   </energy>
  </scstep>
  <scstep>
   <time name="diag">    0.02    0.03</time>
   <time name="diis">    0.08    0.12</time>
   <time name="orth">    0.00    0.00</time>
   <time name="total">    0.59    0.76</time>
   <energy>
    <i name="e_fr_energy">    -91.32202567 </i>
    <i name="e_wo_entrp">    -91.32202567 </i>
    <i name="e_0_energy">    -91.32202567 </i>
   </energy>
  </scstep>
  <scstep>
   <time name="diag">    0.02    0.03</time>
   <time name="diis">    0.04    0.09</time>
   <time name="orth">    0.00    0.00</time>
   <time name="total">    0.62    0.88</time>
   <energy>
    <i name="e_fr_energy">    -91.29024537 </i>
    <i name="e_wo_entrp">    -91.29024537 </i>
    <i name="e_0_energy">    -91.29024537 </i>
   </energy>
  </scstep>
  <scstep>
   <time name="diag">    0.03    0.03</time>
   <time name="diis">    0.09    0.09</time>
   <time name="orth">    0.00    0.00</time>
   <time name="total">    0.62    0.62</time>
   <energy>
    <i name="e_fr_energy">    -91.29288569 </i>
    <i name="e_wo_entrp">    -91.29288569 </i>
    <i name="e_0_energy">    -91.29288569 </i>
   </energy>
  </scstep>
  <scstep>
   <time name="diag">    0.03    0.03</time>
   <time name="diis">    0.06    0.11</time>
   <time name="orth">    0.00    0.00</time>
   <time name="total">    0.58    0.64</time>
   <energy>
    <i name="e_fr_energy">    -91.29313810 </i>
    <i name="e_wo_entrp">    -91.29313810 </i>
    <i name="e_0_energy">    -91.29313810 </i>
   </energy>
  </scstep>
  <scstep>
   <time name="diag">    0.01    0.03</time>
   <time name="diis">    0.07    0.08</time>
   <time name="orth">    0.00    0.00</time>
   <time name="total">    0.51    0.67</time>
   <energy>
    <i name="e_fr_energy">    -91.29314133 </i>
    <i name="e_wo_entrp">    -91.29314133 </i>
    <i name="e_0_energy">    -91.29314133 </i>
   </energy>
  </scstep>
  <scstep>
   <time name="diag">    0.03    0.03</time>
   <time name="diis">    0.08    0.08</time>
   <time name="orth">    0.00    0.00</time>
   <time name="total">    0.66    0.66</time>
   <energy>
    <i name="e_fr_energy">    -91.29316666 </i>
    <i name="e_wo_entrp">    -91.29316666 </i>
    <i name="e_0_energy">    -91.29316666 </i>
   </energy>
  </scstep>
  <scstep>
   <time name="diag">    0.01    0.03</time>
   <time name="diis">    0.03    0.06</time>
   <time name="orth">    0.00    0.00</time>
   <time name="total">    0.56    0.74</time>
   <energy>
    <i name="alphaZ">    441.37612112 </i>
    <i name="ewald">  -7485.64291034 </i>
    <i name="hartreedc">  -3606.46668971 </i>
    <i name="XCdc">    499.54507648 </i>
    <i name="pawpsdc">  11879.94989337 </i>
    <i name="pawaedc"> -12114.07086019 </i>
    <i name="eentropy">     -0.00000000 </i>
    <i name="bandstr">  -1265.04138711 </i>
    <i name="atom">  11559.05757976 </i>
    <i name="e_fr_energy">    -91.29317663 </i>
    <i name="e_wo_entrp">    -91.29317663 </i>
    <i name="e_0_energy">    -91.29317663 </i>
   </energy>
  </scstep>
  <structure>
   <crystal>
    <varray name="basis" >
     <v>       2.91633100       0.00000000       0.00000000 </v>
     <v>      -0.00000100       4.58096600       0.00014500 </v>
     <v>       0.00000200       0.00030000       9.43439300 </v>
    </varray>
    <i name="volume">    126.03984071 </i>
    <varray name="rec_basis" >
     <v>       0.34289661       0.00000007      -0.00000007 </v>
     <v>       0.00000000       0.21829457      -0.00000694 </v>
     <v>       0.00000000      -0.00000336       0.10599516 </v>
    </varray>
   </crystal>
   <varray name="positions" >
    <v>       0.25000000       0.02126500       0.86501400 </v>
    <v>       0.74999900       0.97874100       0.13499200 </v>
    <v>       0.75000000       0.52131000       0.63496800 </v>
    <v>       0.25000100       0.47868900       0.36502400 </v>
    <v>       0.25000000       0.71244700       0.53693000 </v>
    <v>       0.75000000       0.21232300       0.96305200 </v>
    <v>       0.25000000       0.78767800       0.03695300 </v>
    <v>       0.75000000       0.28755100       0.46306600 </v>
    <v>       0.25000000       0.19132200       0.21631000 </v>
    <v>       0.25000000       0.30854000       0.71624800 </v>
    <v>       0.75000000       0.69145800       0.28375200 </v>
    <v>       0.75000000       0.80867700       0.78369200 </v>
   </varray>
  </structure>
  <varray name="forces" >
   <v>      -0.00021396      -0.15296371       0.85164214 </v>
   <v>      -0.00012747       0.15248671      -0.85361248 </v>
   <v>      -0.00040431      -0.15361740      -0.85232433 </v>
   <v>      -0.00031160       0.15454092       0.85331869 </v>
   <v>      -0.00003426      -1.73139617       1.47374463 </v>
   <v>       0.00006749      -1.72563375      -1.47262703 </v>
   <v>       0.00004254       1.72537049       1.47331607 </v>
   <v>       0.00028755       1.73109552      -1.47541401 </v>
   <v>       0.00012659      -1.38031669      -1.13279521 </v>
   <v>       0.00021877       1.38769420      -1.13254826 </v>
   <v>       0.00009272      -1.38819010       1.13314205 </v>
   <v>       0.00025594       1.38092998       1.13415775 </v>
  </varray>
  <varray name="stress" >
   <v>      34.30024001       0.00158711       0.00123027 </v>
   <v>       0.00158750    -160.29529756       0.03953728 </v>
   <v>       0.00122945       0.03954781    -147.50448438 </v>
  </varray>
  <energy>
   <i name="e_fr_energy">    -91.29317663 </i>
   <i name="e_wo_entrp">    -91.29317663 </i>
   <i name="e_0_energy">     -0.00000000 </i>
  </energy>
  <time name="totalsc">   10.12   12.31</time>
 </calculation>
 <calculation>
  <scstep>
   <time name="dav">    0.09    0.17</time>
   <time name="total">    0.36    0.71</time>
   <energy>
    <i name="alphaZ">    441.37612112 </i>
    <i name="ewald">  -7278.06994220 </i>
    <i name="hartreedc">  -3795.59719055 </i>
    <i name="XCdc">    500.89772872 </i>
    <i name="pawpsdc">  11880.96549794 </i>
    <i name="pawaedc"> -12115.08249112 </i>
    <i name="eentropy">     -0.00000000 </i>
    <i name="bandstr">  -1282.54557601 </i>
    <i name="atom">  11559.05757976 </i>
    <i name="e_fr_energy">    -88.99827234 </i>
    <i name="e_wo_entrp">    -88.99827234 </i>
    <i name="e_0_energy">    -88.99827234 </i>
   </energy>
  </scstep>
  <scstep>
   <time name="diag">    0.03    0.03</time>
   <time name="diis">    0.11    0.11</time>
   <time name="orth">    0.00    0.00</time>
   <time name="total">    0.64    0.64</time>
   <energy>
    <i name="e_fr_energy">    -92.34735497 </i>
    <i name="e_wo_entrp">    -92.34735497 </i>
    <i name="e_0_energy">    -92.34735497 </i>
   </energy>
  </scstep>
  <scstep>
   <time name="diag">    0.03    0.03</time>
   <time name="diis">    0.11    0.11</time>
   <time name="orth">    0.00    0.00</time>
   <time name="total">    0.77    0.84</time>
   <energy>
    <i name="e_fr_energy">    -92.31528709 </i>
    <i name="e_wo_entrp">    -92.31528709 </i>
    <i name="e_0_energy">    -92.31528709 </i>
   </energy>
  </scstep>
  <scstep>
   <time name="diag">    0.03    0.03</time>
   <time name="diis">    0.08    0.08</time>
   <time name="orth">    0.00    0.00</time>
   <time name="total">    0.72    0.72</time>
   <energy>
    <i name="e_fr_energy">    -92.26687699 </i>
    <i name="e_wo_entrp">    -92.26687699 </i>
    <i name="e_0_energy">    -92.26687699 </i>
   </energy>
  </scstep>
  <scstep>
   <time name="diag">    0.03    0.03</time>
   <time name="diis">    0.08    0.08</time>
   <time name="orth">    0.00    0.00</time>
   <time name="total">    0.59    0.59</time>
   <energy>
    <i name="e_fr_energy">    -92.24099693 </i>
    <i name="e_wo_entrp">    -92.24099693 </i>
    <i name="e_0_energy">    -92.24099693 </i>
   </energy>
  </scstep>
  <scstep>
   <time name="diag">    0.03    0.03</time>
   <time name="diis">    0.08    0.08</time>
   <time name="orth">    0.00    0.00</time>
   <time name="total">    0.60    0.61</time>
   <energy>
    <i name="e_fr_energy">    -92.24291172 </i>
    <i name="e_wo_entrp">    -92.24291172 </i>
    <i name="e_0_energy">    -92.24291172 </i>
   </energy>
  </scstep>
  <scstep>
   <time name="diag">    0.03    0.03</time>
   <time name="diis">    0.08    0.08</time>
   <time name="orth">    0.00    0.00</time>
   <time name="total">    0.60    0.60</time>
   <energy>
    <i name="e_fr_energy">    -92.24177013 </i>
    <i name="e_wo_entrp">    -92.24177013 </i>
    <i name="e_0_energy">    -92.24177013 </i>
   </energy>
  </scstep>
  <scstep>
   <time name="diag">    0.03    0.03</time>
   <time name="diis">    0.08    0.08</time>
   <time name="orth">    0.00    0.00</time>
   <time name="total">    0.59    0.60</time>
   <energy>
    <i name="e_fr_energy">    -92.24132837 </i>
    <i name="e_wo_entrp">    -92.24132837 </i>
    <i name="e_0_energy">    -92.24132837 </i>
   </energy>
  </scstep>
  <scstep>
   <time name="diag">    0.03    0.03</time>
   <time name="diis">    0.08    0.08</time>
   <time name="orth">    0.00    0.00</time>
   <time name="total">    0.57    0.58</time>
   <energy>
    <i name="e_fr_energy">    -92.24121945 </i>
    <i name="e_wo_entrp">    -92.24121945 </i>
    <i name="e_0_energy">    -92.24121945 </i>
   </energy>
  </scstep>
  <scstep>
   <time name="diag">    0.03    0.03</time>
   <time name="diis">    0.07    0.07</time>
   <time name="orth">    0.00    0.00</time>
   <time name="total">    0.58    0.58</time>
   <energy>
    <i name="e_fr_energy">    -92.24120432 </i>
    <i name="e_wo_entrp">    -92.24120432 </i>
    <i name="e_0_energy">    -92.24120432 </i>
   </energy>
  </scstep>
  <scstep>
   <time name="diag">    0.03    0.03</time>
   <time name="diis">    0.04    0.04</time>
   <time name="orth">    0.00    0.00</time>
   <time name="total">    0.64    0.64</time>
   <energy>
    <i name="alphaZ">    441.37612112 </i>
    <i name="ewald">  -7278.06994220 </i>
    <i name="hartreedc">  -3804.21771302 </i>
    <i name="XCdc">    500.84298689 </i>
    <i name="pawpsdc">  12268.19066510 </i>
    <i name="pawaedc"> -12502.19180064 </i>
    <i name="eentropy">     -0.00000000 </i>
    <i name="bandstr">  -1277.22910144 </i>
    <i name="atom">  11559.05757976 </i>
    <i name="e_fr_energy">    -92.24120442 </i>
    <i name="e_wo_entrp">    -92.24120442 </i>
    <i name="e_0_energy">    -92.24120442 </i>
   </energy>
  </scstep>
  <structure>
   <crystal>
    <varray name="basis" >
     <v>       2.91633100       0.00000000       0.00000000 </v>
     <v>      -0.00000100       4.58096600       0.00014500 </v>
     <v>       0.00000200       0.00030000       9.43439300 </v>
    </varray>
    <i name="volume">    126.03984071 </i>
    <varray name="rec_basis" >
     <v>       0.34289661       0.00000007      -0.00000007 </v>
     <v>       0.00000000       0.21829457      -0.00000694 </v>
     <v>       0.00000000      -0.00000336       0.10599516 </v>
    </varray>
   </crystal>
   <varray name="positions" >
    <v>       0.24999646       0.01965384       0.86936889 </v>
    <v>       0.74999689       0.98034714       0.13062704 </v>
    <v>       0.74999331       0.51969252       0.63060967 </v>
    <v>       0.24999584       0.48031620       0.36938741 </v>
    <v>       0.24999942       0.69421298       0.54446626 </v>
    <v>       0.75000112       0.19415066       0.95552202 </v>
    <v>       0.25000070       0.80584757       0.04448650 </v>
    <v>       0.75000477       0.30578185       0.45552121 </v>
    <v>       0.25000209       0.17678611       0.21051769 </v>
    <v>       0.25000363       0.32315434       0.71045650 </v>
    <v>       0.75000152       0.67683844       0.28954653 </v>
    <v>       0.75000423       0.82321934       0.78949128 </v>
   </varray>
  </structure>
  <varray name="forces" >
   <v>       0.00031662      -0.32126942      -0.47063499 </v>
   <v>       0.00029388       0.32227775       0.47068742 </v>
   <v>       0.00045483      -0.32269136       0.46979526 </v>
   <v>       0.00034370       0.32125189      -0.47057470 </v>
   <v>      -0.00010140       0.10799576       0.12792528 </v>
   <v>      -0.00009277       0.10957816      -0.12684696 </v>
   <v>      -0.00010192      -0.10964686       0.12629275 </v>
   <v>      -0.00031448      -0.10797540      -0.12528493 </v>
   <v>      -0.00016008      -0.22676585      -0.06415883 </v>
   <v>      -0.00024209       0.22851331      -0.06131533 </v>
   <v>      -0.00014110      -0.22736810       0.06060431 </v>
   <v>      -0.00025520       0.22610011       0.06351072 </v>
  </varray>
  <varray name="stress" >
   <v>      53.38755214       0.00372595      -0.00180483 </v>
   <v>       0.00372641     -59.77940101      -0.03818733 </v>
   <v>      -0.00180496      -0.03818144     -48.49760537 </v>
  </varray>
  <energy>
   <i name="e_fr_energy">    -92.24120442 </i>
   <i name="e_wo_entrp">    -92.24120442 </i>
   <i name="e_0_energy">     -0.00000000 </i>
  </energy>
  <time name="totalsc">    8.07    8.56</time>
 </calculation>
 <calculation>
  <scstep>
   <time name="dav">    0.15    0.15</time>
   <time name="total">    0.64    0.64</time>
   <energy>
    <i name="alphaZ">    441.37612112 </i>
    <i name="ewald">  -7277.40602999 </i>
    <i name="hartreedc">  -3804.83002063 </i>
    <i name="XCdc">    500.84798231 </i>
    <i name="pawpsdc">  12268.02427668 </i>
    <i name="pawaedc"> -12502.02749823 </i>
    <i name="eentropy">     -0.00000000 </i>
    <i name="bandstr">  -1277.28360094 </i>
    <i name="atom">  11559.05757976 </i>
    <i name="e_fr_energy">    -92.24118992 </i>
    <i name="e_wo_entrp">    -92.24118992 </i>
    <i name="e_0_energy">    -92.24118992 </i>
   </energy>
  </scstep>
  <scstep>
   <time name="diag">    0.03    0.03</time>
   <time name="diis">    0.09    0.09</time>
   <time name="orth">    0.00    0.00</time>
   <time name="total">    0.64    0.64</time>
   <energy>
    <i name="e_fr_energy">    -92.24121496 </i>
    <i name="e_wo_entrp">    -92.24121496 </i>
    <i name="e_0_energy">    -92.24121496 </i>
   </energy>
  </scstep>
  <scstep>
   <time name="diag">    0.03    0.03</time>
   <time name="diis">    0.05    0.05</time>
   <time name="orth">    0.00    0.00</time>
   <time name="total">    0.65    0.65</time>
   <energy>
    <i name="alphaZ">    441.37612112 </i>
    <i name="ewald">  -7277.40602999 </i>
    <i name="hartreedc">  -3804.84730443 </i>
    <i name="XCdc">    500.84779634 </i>
    <i name="pawpsdc">  12269.02962343 </i>
    <i name="pawaedc"> -12503.03338219 </i>
    <i name="eentropy">     -0.00000000 </i>
    <i name="bandstr">  -1277.26561963 </i>
    <i name="atom">  11559.05757976 </i>
    <i name="e_fr_energy">    -92.24121559 </i>
    <i name="e_wo_entrp">    -92.24121559 </i>
    <i name="e_0_energy">    -92.24121559 </i>
   </energy>
  </scstep>
  <structure>
   <crystal>
    <varray name="basis" >
     <v>       2.91633100       0.00000000       0.00000000 </v>
     <v>      -0.00000100       4.58096600       0.00014500 </v>
     <v>       0.00000200       0.00030000       9.43439300 </v>
    </varray>
    <i name="volume">    126.03984071 </i>
    <varray name="rec_basis" >
     <v>       0.34289661       0.00000007      -0.00000007 </v>
     <v>       0.00000000       0.21829457      -0.00000694 </v>
     <v>       0.00000000      -0.00000336       0.10599516 </v>
    </varray>
   </crystal>
   <varray name="positions" >
    <v>       0.24999645       0.01964921       0.86938138 </v>
    <v>       0.74999689       0.98035175       0.13061451 </v>
    <v>       0.74999330       0.51968788       0.63059717 </v>
    <v>       0.24999583       0.48032087       0.36939993 </v>
    <v>       0.24999942       0.69416066       0.54448788 </v>
    <v>       0.75000112       0.19409851       0.95550041 </v>
    <v>       0.25000071       0.80589971       0.04450812 </v>
    <v>       0.75000478       0.30583417       0.45549956 </v>
    <v>       0.25000210       0.17674440       0.21050107 </v>
    <v>       0.25000364       0.32319628       0.71043988 </v>
    <v>       0.75000153       0.67679649       0.28956316 </v>
    <v>       0.75000425       0.82326108       0.78950792 </v>
   </varray>
  </structure>
  <varray name="forces" >
   <v>       0.00036479      -0.32314489      -0.47647713 </v>
   <v>       0.00034797       0.32369659       0.47821423 </v>
   <v>       0.00039110      -0.32440025       0.47566069 </v>
   <v>       0.00054350       0.32267679      -0.47818534 </v>
   <v>      -0.00014229       0.11390409       0.12303629 </v>
   <v>      -0.00015370       0.11561634      -0.12195293 </v>
   <v>      -0.00009848      -0.11540584       0.12110402 </v>
   <v>      -0.00034074      -0.11354979      -0.12021042 </v>
   <v>      -0.00016697      -0.22346402      -0.06124618 </v>
   <v>      -0.00030709       0.22549074      -0.05825955 </v>
   <v>      -0.00016781      -0.22438538       0.05787925 </v>
   <v>      -0.00027028       0.22296563       0.06043707 </v>
  </varray>
  <varray name="stress" >
   <v>      53.16419037       0.00426524      -0.00191756 </v>
   <v>       0.00426573     -59.55819725      -0.03302972 </v>
   <v>      -0.00191686      -0.03302465     -48.30821674 </v>
  </varray>
  <energy>
   <i name="e_fr_energy">    -92.24121559 </i>
   <i name="e_wo_entrp">    -92.24121559 </i>
   <i name="e_0_energy">     -0.00000000 </i>
  </energy>
  <time name="totalsc">    3.54    3.57</time>
 </calculation>
 <calculation>
  <scstep>
   <time name="dav">    0.19    0.19</time>
   <time name="total">    0.75    0.76</time>
   <energy>
    <i name="alphaZ">    441.37612112 </i>
    <i name="ewald">  -7283.23634770 </i>
    <i name="hartreedc">  -3799.65471806 </i>
    <i name="XCdc">    500.88979804 </i>
    <i name="pawpsdc">  12269.25378056 </i>
    <i name="pawaedc"> -12503.25706325 </i>
    <i name="eentropy">     -0.00000000 </i>
    <i name="bandstr">  -1276.11618581 </i>
    <i name="atom">  11559.05757976 </i>
    <i name="e_fr_energy">    -91.68703534 </i>
    <i name="e_wo_entrp">    -91.68703534 </i>
    <i name="e_0_energy">    -91.68703534 </i>
   </energy>
  </scstep>
  <scstep>
   <time name="diag">    0.03    0.03</time>
   <time name="diis">    0.10    0.10</time>
   <time name="orth">    0.00    0.00</time>
   <time name="total">    0.70    0.70</time>
   <energy>
    <i name="e_fr_energy">    -92.27678405 </i>
    <i name="e_wo_entrp">    -92.27678405 </i>
    <i name="e_0_energy">    -92.27678405 </i>
   </energy>
  </scstep>
  <scstep>
   <time name="diag">    0.03    0.03</time>
   <time name="diis">    0.08    0.08</time>
   <time name="orth">    0.00    0.00</time>
   <time name="total">    0.66    0.66</time>
   <energy>
    <i name="e_fr_energy">    -92.26346765 </i>
    <i name="e_wo_entrp">    -92.26346765 </i>
    <i name="e_0_energy">    -92.26346765 </i>
   </energy>
  </scstep>
  <scstep>
   <time name="diag">    0.02    0.02</time>
   <time name="diis">    0.09    0.09</time>
   <time name="orth">    0.00    0.00</time>
   <time name="total">    0.62    0.62</time>
   <energy>
    <i name="e_fr_energy">    -92.26053453 </i>
    <i name="e_wo_entrp">    -92.26053453 </i>
    <i name="e_0_energy">    -92.26053453 </i>
   </energy>
  </scstep>
  <scstep>
   <time name="diag">    0.02    0.02</time>
   <time name="diis">    0.08    0.08</time>
   <time name="orth">    0.00    0.00</time>
   <time name="total">    0.61    0.61</time>
   <energy>
    <i name="e_fr_energy">    -92.25932079 </i>
    <i name="e_wo_entrp">    -92.25932079 </i>
    <i name="e_0_energy">    -92.25932079 </i>
   </energy>
  </scstep>
  <scstep>
   <time name="diag">    0.03    0.03</time>
   <time name="diis">    0.08    0.08</time>
   <time name="orth">    0.00    0.00</time>
   <time name="total">    0.60    0.60</time>
   <energy>
    <i name="e_fr_energy">    -92.25817100 </i>
    <i name="e_wo_entrp">    -92.25817100 </i>
    <i name="e_0_energy">    -92.25817100 </i>
   </energy>
  </scstep>
  <scstep>
   <time name="diag">    0.02    0.02</time>
   <time name="diis">    0.06    0.06</time>
   <time name="orth">    0.00    0.00</time>
   <time name="total">    0.60    0.60</time>
   <energy>
    <i name="e_fr_energy">    -92.25814634 </i>
    <i name="e_wo_entrp">    -92.25814634 </i>
    <i name="e_0_energy">    -92.25814634 </i>
   </energy>
  </scstep>
  <scstep>
   <time name="diag">    0.02    0.02</time>
   <time name="diis">    0.04    0.04</time>
   <time name="orth">    0.00    0.00</time>
   <time name="total">    0.53    0.53</time>
   <energy>
    <i name="e_fr_energy">    -92.25811591 </i>
    <i name="e_wo_entrp">    -92.25811591 </i>
    <i name="e_0_energy">    -92.25811591 </i>
   </energy>
  </scstep>
  <scstep>
   <time name="diag">    0.02    0.04</time>
   <time name="diis">    0.02    0.05</time>
   <time name="orth">    0.00    0.00</time>
   <time name="total">    0.50    0.55</time>
   <energy>
    <i name="alphaZ">    441.37612112 </i>
    <i name="ewald">  -7283.23634770 </i>
    <i name="hartreedc">  -3800.05646736 </i>
    <i name="XCdc">    500.92151420 </i>
    <i name="pawpsdc">  12276.29129033 </i>
    <i name="pawaedc"> -12510.25353198 </i>
    <i name="eentropy">     -0.00000000 </i>
    <i name="bandstr">  -1276.35827274 </i>
    <i name="atom">  11559.05757976 </i>
    <i name="e_fr_energy">    -92.25811438 </i>
    <i name="e_wo_entrp">    -92.25811438 </i>
    <i name="e_0_energy">    -92.25811438 </i>
   </energy>
  </scstep>
  <structure>
   <crystal>
    <varray name="basis" >
     <v>       2.91633100       0.00000000       0.00000000 </v>
     <v>      -0.00000100       4.58096600       0.00014500 </v>
     <v>       0.00000200       0.00030000       9.43439300 </v>
    </varray>
    <i name="volume">    126.03984071 </i>
    <varray name="rec_basis" >
     <v>       0.34289661       0.00000007      -0.00000007 </v>
     <v>       0.00000000       0.21829457      -0.00000694 </v>
     <v>       0.00000000      -0.00000336       0.10599516 </v>
    </varray>
   </crystal>
   <varray name="positions" >
    <v>       0.25000232       0.01617134       0.86714091 </v>
    <v>       0.75000255       0.98383521       0.13286342 </v>
    <v>       0.74999946       0.51619618       0.63283341 </v>
    <v>       0.25000459       0.48379486       0.36715100 </v>
    <v>       0.24999704       0.69453461       0.54545886 </v>
    <v>       0.74999863       0.19449338       0.95453522 </v>
    <v>       0.24999911       0.80550694       0.04546913 </v>
    <v>       0.74999936       0.30546381       0.45454265 </v>
    <v>       0.24999943       0.17373108       0.20992528 </v>
    <v>       0.24999872       0.32623454       0.70987934 </v>
    <v>       0.74999882       0.67376963       0.29012190 </v>
    <v>       0.74999997       0.82626943       0.79007989 </v>
   </varray>
  </structure>
  <varray name="forces" >
   <v>      -0.00016017      -0.07592362       0.45326751 </v>
   <v>      -0.00013584       0.07516792      -0.45585630 </v>
   <v>      -0.00004145      -0.07704369      -0.45201565 </v>
   <v>      -0.00096843       0.07676205       0.45349642 </v>
   <v>       0.00017481       0.00331017      -0.04992989 </v>
   <v>       0.00016902       0.00346919       0.04963560 </v>
   <v>       0.00016019      -0.00305180      -0.04846084 </v>
   <v>       0.00017527      -0.00323659       0.04898364 </v>
   <v>       0.00016551       0.12265721       0.27402609 </v>
   <v>       0.00009011      -0.12150071       0.27573263 </v>
   <v>       0.00025413       0.12121904      -0.27548120 </v>
   <v>       0.00011686      -0.12182917      -0.27339801 </v>
  </varray>
  <varray name="stress" >
   <v>      51.55352970      -0.00439384       0.00413084 </v>
   <v>      -0.00439385     -43.88759617      -0.05672112 </v>
   <v>       0.00413129      -0.05671684     -49.67721192 </v>
  </varray>
  <energy>
   <i name="e_fr_energy">    -92.25811438 </i>
   <i name="e_wo_entrp">    -92.25811438 </i>
   <i name="e_0_energy">     -0.00000000 </i>
  </energy>
  <time name="totalsc">    6.19    6.91</time>
 </calculation>
 <calculation>
  <scstep>
   <time name="dav">    0.19    0.19</time>
   <time name="total">    0.49    0.69</time>
   <energy>
    <i name="alphaZ">    441.37612112 </i>
    <i name="ewald">  -7281.40787756 </i>
    <i name="hartreedc">  -3801.81746527 </i>
    <i name="XCdc">    500.91400382 </i>
    <i name="pawpsdc">  12275.86755857 </i>
    <i name="pawaedc"> -12509.82938867 </i>
    <i name="eentropy">     -0.00000000 </i>
    <i name="bandstr">  -1276.34966433 </i>
    <i name="atom">  11559.05757976 </i>
    <i name="e_fr_energy">    -92.18913255 </i>
    <i name="e_wo_entrp">    -92.18913255 </i>
    <i name="e_0_energy">    -92.18913255 </i>
   </energy>
  </scstep>
  <scstep>
   <time name="diag">    0.02    0.02</time>
   <time name="diis">    0.09    0.09</time>
   <time name="orth">    0.00    0.00</time>
   <time name="total">    0.67    0.67</time>
   <energy>
    <i name="e_fr_energy">    -92.27262697 </i>
    <i name="e_wo_entrp">    -92.27262697 </i>
    <i name="e_0_energy">    -92.27262697 </i>
   </energy>
  </scstep>
  <scstep>
   <time name="diag">    0.03    0.03</time>
   <time name="diis">    0.09    0.09</time>
   <time name="orth">    0.00    0.00</time>
   <time name="total">    0.59    0.59</time>
   <energy>
    <i name="e_fr_energy">    -92.26749912 </i>
    <i name="e_wo_entrp">    -92.26749912 </i>
    <i name="e_0_energy">    -92.26749912 </i>
   </energy>
  </scstep>
  <scstep>
   <time name="diag">    0.02    0.02</time>
   <time name="diis">    0.09    0.09</time>
   <time name="orth">    0.00    0.00</time>
   <time name="total">    0.62    0.62</time>
   <energy>
    <i name="e_fr_energy">    -92.26704140 </i>
    <i name="e_wo_entrp">    -92.26704140 </i>
    <i name="e_0_energy">    -92.26704140 </i>
   </energy>
  </scstep>
  <scstep>
   <time name="diag">    0.03    0.03</time>
   <time name="diis">    0.05    0.09</time>
   <time name="orth">    0.00    0.00</time>
   <time name="total">    0.62    0.69</time>
   <energy>
    <i name="e_fr_energy">    -92.26689131 </i>
    <i name="e_wo_entrp">    -92.26689131 </i>
    <i name="e_0_energy">    -92.26689131 </i>
   </energy>
  </scstep>
  <scstep>
   <time name="diag">    0.02    0.02</time>
   <time name="diis">    0.09    0.09</time>
   <time name="orth">    0.00    0.00</time>
   <time name="total">    0.68    0.68</time>
   <energy>
    <i name="e_fr_energy">    -92.26667602 </i>
    <i name="e_wo_entrp">    -92.26667602 </i>
    <i name="e_0_energy">    -92.26667602 </i>
   </energy>
  </scstep>
  <scstep>
   <time name="diag">    0.02    0.02</time>
   <time name="diis">    0.08    0.08</time>
   <time name="orth">    0.00    0.00</time>
   <time name="total">    0.59    0.60</time>
   <energy>
    <i name="e_fr_energy">    -92.26666701 </i>
    <i name="e_wo_entrp">    -92.26666701 </i>
    <i name="e_0_energy">    -92.26666701 </i>
   </energy>
  </scstep>
  <scstep>
   <time name="diag">    0.02    0.02</time>
   <time name="diis">    0.05    0.05</time>
   <time name="orth">    0.00    0.00</time>
   <time name="total">    0.53    0.53</time>
   <energy>
    <i name="alphaZ">    441.37612112 </i>
    <i name="ewald">  -7281.40787756 </i>
    <i name="hartreedc">  -3801.55678884 </i>
    <i name="XCdc">    500.89118819 </i>
    <i name="pawpsdc">  12271.02627097 </i>
    <i name="pawaedc"> -12505.00062073 </i>
    <i name="eentropy">     -0.00000000 </i>
    <i name="bandstr">  -1276.65253779 </i>
    <i name="atom">  11559.05757976 </i>
    <i name="e_fr_energy">    -92.26666489 </i>
    <i name="e_wo_entrp">    -92.26666489 </i>
    <i name="e_0_energy">    -92.26666489 </i>
   </energy>
  </scstep>
  <structure>
   <crystal>
    <varray name="basis" >
     <v>       2.91633100       0.00000000       0.00000000 </v>
     <v>      -0.00000100       4.58096600       0.00014500 </v>
     <v>       0.00000200       0.00030000       9.43439300 </v>
    </varray>
    <i name="volume">    126.03984071 </i>
    <varray name="rec_basis" >
     <v>       0.34289661       0.00000007      -0.00000007 </v>
     <v>       0.00000000       0.21829457      -0.00000694 </v>
     <v>       0.00000000      -0.00000336       0.10599516 </v>
    </varray>
   </crystal>
   <varray name="positions" >
    <v>       0.25000018       0.01744116       0.86795894 </v>
    <v>       0.75000048       0.98256335       0.13204231 </v>
    <v>       0.74999721       0.51747104       0.63201693 </v>
    <v>       0.25000139       0.48252646       0.36797211 </v>
    <v>       0.24999791       0.69439807       0.54510434 </v>
    <v>       0.74999954       0.19434920       0.95488763 </v>
    <v>       0.24999969       0.80565034       0.04511825 </v>
    <v>       0.75000134       0.30559903       0.45489203 </v>
    <v>       0.25000040       0.17483129       0.21013551 </v>
    <v>       0.25000052       0.32512523       0.71008400 </v>
    <v>       0.74999981       0.67487478       0.28991790 </v>
    <v>       0.75000153       0.82517104       0.78987105 </v>
   </varray>
  </structure>
  <varray name="forces" >
   <v>       0.00004917      -0.17703471       0.10990896 </v>
   <v>      -0.00002719       0.17692749      -0.11090648 </v>
   <v>       0.00011333      -0.17778473      -0.10959260 </v>
   <v>      -0.00005014       0.17724527       0.10960355 </v>
   <v>       0.00003272       0.03978988       0.01561568 </v>
   <v>       0.00002443       0.04050623      -0.01540125 </v>
   <v>       0.00002710      -0.04019166       0.01583682 </v>
   <v>      -0.00003936      -0.03966690      -0.01516969 </v>
   <v>      -0.00000482      -0.01008338       0.14705401 </v>
   <v>      -0.00010501       0.01136826       0.14919519 </v>
   <v>       0.00005317      -0.01132031      -0.14923299 </v>
   <v>      -0.00007340       0.01024457      -0.14691119 </v>
  </varray>
  <varray name="stress" >
   <v>      51.20272528       0.00265263      -0.00093432 </v>
   <v>       0.00265280     -50.46026524      -0.04286115 </v>
   <v>      -0.00093401      -0.04285641     -49.69388514 </v>
  </varray>
  <energy>
   <i name="e_fr_energy">    -92.26666489 </i>
   <i name="e_wo_entrp">    -92.26666489 </i>
   <i name="e_0_energy">     -0.00000000 </i>
  </energy>
  <time name="totalsc">    6.03    6.35</time>
 </calculation>
 <calculation>
  <scstep>
   <time name="dav">    0.19    0.19</time>
   <time name="total">    0.85    0.86</time>
   <energy>
    <i name="alphaZ">    441.37612112 </i>
    <i name="ewald">  -7282.68910405 </i>
    <i name="hartreedc">  -3800.41375119 </i>
    <i name="XCdc">    500.88128992 </i>
    <i name="pawpsdc">  12270.90446451 </i>
    <i name="pawaedc"> -12504.87774563 </i>
    <i name="eentropy">     -0.00000000 </i>
    <i name="bandstr">  -1276.42640357 </i>
    <i name="atom">  11559.05757976 </i>
    <i name="e_fr_energy">    -92.18754913 </i>
    <i name="e_wo_entrp">    -92.18754913 </i>
    <i name="e_0_energy">    -92.18754913 </i>
   </energy>
  </scstep>
  <scstep>
   <time name="diag">    0.02    0.02</time>
   <time name="diis">    0.09    0.09</time>
   <time name="orth">    0.00    0.00</time>
   <time name="total">    0.59    0.59</time>
   <energy>
    <i name="e_fr_energy">    -92.27371175 </i>
    <i name="e_wo_entrp">    -92.27371175 </i>
    <i name="e_0_energy">    -92.27371175 </i>
   </energy>
  </scstep>
  <scstep>
   <time name="diag">    0.02    0.02</time>
   <time name="diis">    0.08    0.08</time>
   <time name="orth">    0.00    0.00</time>
   <time name="total">    0.65    0.65</time>
   <energy>
    <i name="e_fr_energy">    -92.27949806 </i>
    <i name="e_wo_entrp">    -92.27949806 </i>
    <i name="e_0_energy">    -92.27949806 </i>
   </energy>
  </scstep>
  <scstep>
   <time name="diag">    0.03    0.03</time>
   <time name="diis">    0.10    0.10</time>
   <time name="orth">    0.00    0.00</time>
   <time name="total">    0.65    0.65</time>
   <energy>
    <i name="e_fr_energy">    -92.27891493 </i>
    <i name="e_wo_entrp">    -92.27891493 </i>
    <i name="e_0_energy">    -92.27891493 </i>
   </energy>
  </scstep>
  <scstep>
   <time name="diag">    0.02    0.02</time>
   <time name="diis">    0.08    0.08</time>
   <time name="orth">    0.00    0.00</time>
   <time name="total">    0.74    0.74</time>
   <energy>
    <i name="e_fr_energy">    -92.27867569 </i>
    <i name="e_wo_entrp">    -92.27867569 </i>
    <i name="e_0_energy">    -92.27867569 </i>
   </energy>
  </scstep>
  <scstep>
   <time name="diag">    0.02    0.02</time>
   <time name="diis">    0.08    0.08</time>
   <time name="orth">    0.00    0.00</time>
   <time name="total">    0.70    0.71</time>
   <energy>
    <i name="e_fr_energy">    -92.27864815 </i>
    <i name="e_wo_entrp">    -92.27864815 </i>
    <i name="e_0_energy">    -92.27864815 </i>
   </energy>
  </scstep>
  <scstep>
   <time name="diag">    0.03    0.03</time>
   <time name="diis">    0.06    0.07</time>
   <time name="orth">    0.00    0.00</time>
   <time name="total">    0.60    0.61</time>
   <energy>
    <i name="alphaZ">    441.37612112 </i>
    <i name="ewald">  -7282.68910405 </i>
    <i name="hartreedc">  -3800.35313848 </i>
    <i name="XCdc">    500.88110739 </i>
    <i name="pawpsdc">  12268.21277116 </i>
    <i name="pawaedc"> -12502.15460803 </i>
    <i name="eentropy">     -0.00000000 </i>
    <i name="bandstr">  -1276.60937841 </i>
    <i name="atom">  11559.05757976 </i>
    <i name="e_fr_energy">    -92.27864955 </i>
    <i name="e_wo_entrp">    -92.27864955 </i>
    <i name="e_0_energy">    -92.27864955 </i>
   </energy>
  </scstep>
  <structure>
   <crystal>
    <varray name="basis" >
     <v>       2.91633100       0.00000000       0.00000000 </v>
     <v>      -0.00000100       4.58096600       0.00014500 </v>
     <v>       0.00000200       0.00030000       9.43439300 </v>
    </varray>
    <i name="volume">    126.03984071 </i>
    <varray name="rec_basis" >
     <v>       0.34289661       0.00000007      -0.00000007 </v>
     <v>       0.00000000       0.21829457      -0.00000694 </v>
     <v>       0.00000000      -0.00000336       0.10599516 </v>
    </varray>
   </crystal>
   <varray name="positions" >
    <v>       0.25000175       0.01522531       0.86816677 </v>
    <v>       0.75000086       0.98477893       0.13183092 </v>
    <v>       0.74999981       0.51524600       0.63181006 </v>
    <v>       0.25000185       0.48474375       0.36817727 </v>
    <v>       0.24999808       0.69483904       0.54531425 </v>
    <v>       0.74999956       0.19480011       0.95467954 </v>
    <v>       0.24999988       0.80520281       0.04532782 </v>
    <v>       0.74999998       0.30515976       0.45468621 </v>
    <v>       0.24999996       0.17431115       0.21075240 </v>
    <v>       0.24999822       0.32566131       0.71071318 </v>
    <v>       0.75000025       0.67434076       0.28928829 </v>
    <v>       0.74999980       0.82569205       0.78925431 </v>
   </varray>
  </structure>
  <varray name="forces" >
   <v>      -0.00011848      -0.21397058       0.14010619 </v>
   <v>      -0.00005297       0.21399138      -0.14131110 </v>
   <v>      -0.00011093      -0.21428693      -0.14027065 </v>
   <v>      -0.00009317       0.21425108       0.14000122 </v>
   <v>       0.00007660      -0.01910561      -0.05428199 </v>
   <v>       0.00005849      -0.01855787       0.05436140 </v>
   <v>       0.00002810       0.01863178      -0.05397348 </v>
   <v>       0.00003079       0.01895496       0.05438859 </v>
   <v>       0.00002895      -0.03783054       0.09541040 </v>
   <v>       0.00006366       0.03854850       0.09741780 </v>
   <v>       0.00004340      -0.03893715      -0.09688132 </v>
   <v>       0.00004556       0.03831100      -0.09496704 </v>
  </varray>
  <varray name="stress" >
   <v>      49.86771661       0.00097044      -0.00020881 </v>
   <v>       0.00097086     -49.22382663      -0.04798119 </v>
   <v>      -0.00020822      -0.04797755     -49.97261078 </v>
  </varray>
  <energy>
   <i name="e_fr_energy">    -92.27864955 </i>
   <i name="e_wo_entrp">    -92.27864955 </i>
   <i name="e_0_energy">     -0.00000000 </i>
  </energy>
  <time name="totalsc">    6.08    6.12</time>
 </calculation>
 <calculation>
  <scstep>
   <time name="dav">    0.18    0.18</time>
   <time name="total">    0.66    0.68</time>
   <energy>
    <i name="alphaZ">    441.37612112 </i>
    <i name="ewald">  -7288.36320038 </i>
    <i name="hartreedc">  -3795.48082099 </i>
    <i name="XCdc">    500.86462971 </i>
    <i name="pawpsdc">  12267.89328419 </i>
    <i name="pawaedc"> -12501.83321017 </i>
    <i name="eentropy">     -0.00000000 </i>
    <i name="bandstr">  -1275.00426208 </i>
    <i name="atom">  11559.05757976 </i>
    <i name="e_fr_energy">    -91.48987885 </i>
    <i name="e_wo_entrp">    -91.48987885 </i>
    <i name="e_0_energy">    -91.48987885 </i>
   </energy>
  </scstep>
  <scstep>
   <time name="diag">    0.02    0.03</time>
   <time name="diis">    0.09    0.09</time>
   <time name="orth">    0.00    0.00</time>
   <time name="total">    0.69    0.69</time>
   <energy>
    <i name="e_fr_energy">    -92.27082837 </i>
    <i name="e_wo_entrp">    -92.27082837 </i>
    <i name="e_0_energy">    -92.27082837 </i>
   </energy>
  </scstep>
  <scstep>
   <time name="diag">    0.02    0.02</time>
   <time name="diis">    0.08    0.08</time>
   <time name="orth">    0.00    0.00</time>
   <time name="total">    0.62    0.62</time>
   <energy>
    <i name="e_fr_energy">    -92.31752762 </i>
    <i name="e_wo_entrp">    -92.31752762 </i>
    <i name="e_0_energy">    -92.31752762 </i>
   </energy>
  </scstep>
  <scstep>
   <time name="diag">    0.02    0.02</time>
   <time name="diis">    0.10    0.10</time>
   <time name="orth">    0.00    0.00</time>
   <time name="total">    0.58    0.59</time>
   <energy>
    <i name="e_fr_energy">    -92.31222946 </i>
    <i name="e_wo_entrp">    -92.31222946 </i>
    <i name="e_0_energy">    -92.31222946 </i>
   </energy>
  </scstep>
  <scstep>
   <time name="diag">    0.03    0.03</time>
   <time name="diis">    0.09    0.09</time>
   <time name="orth">    0.00    0.00</time>
   <time name="total">    0.69    0.69</time>
   <energy>
    <i name="e_fr_energy">    -92.31010874 </i>
    <i name="e_wo_entrp">    -92.31010874 </i>
    <i name="e_0_energy">    -92.31010874 </i>
   </energy>
  </scstep>
  <scstep>
   <time name="diag">    0.02    0.02</time>
   <time name="diis">    0.08    0.08</time>
   <time name="orth">    0.00    0.00</time>
   <time name="total">    0.61    0.61</time>
   <energy>
    <i name="e_fr_energy">    -92.30980176 </i>
    <i name="e_wo_entrp">    -92.30980176 </i>
    <i name="e_0_energy">    -92.30980176 </i>
   </energy>
  </scstep>
  <scstep>
   <time name="diag">    0.03    0.03</time>
   <time name="diis">    0.10    0.10</time>
   <time name="orth">    0.00    0.00</time>
   <time name="total">    0.66    0.67</time>
   <energy>
    <i name="e_fr_energy">    -92.30982943 </i>
    <i name="e_wo_entrp">    -92.30982943 </i>
    <i name="e_0_energy">    -92.30982943 </i>
   </energy>
  </scstep>
  <scstep>
   <time name="diag">    0.02    0.02</time>
   <time name="diis">    0.06    0.06</time>
   <time name="orth">    0.00    0.00</time>
   <time name="total">    0.59    0.59</time>
   <energy>
    <i name="alphaZ">    441.37612112 </i>
    <i name="ewald">  -7288.36320038 </i>
    <i name="hartreedc">  -3795.34773584 </i>
    <i name="XCdc">    500.83518486 </i>
    <i name="pawpsdc">  12260.13378032 </i>
    <i name="pawaedc"> -12493.93212572 </i>
    <i name="eentropy">     -0.00000000 </i>
    <i name="bandstr">  -1276.06942709 </i>
    <i name="atom">  11559.05757976 </i>
    <i name="e_fr_energy">    -92.30982297 </i>
    <i name="e_wo_entrp">    -92.30982297 </i>
    <i name="e_0_energy">    -92.30982297 </i>
   </energy>
  </scstep>
  <structure>
   <crystal>
    <varray name="basis" >
     <v>       2.91633100       0.00000000       0.00000000 </v>
     <v>      -0.00000100       4.58096600       0.00014500 </v>
     <v>       0.00000200       0.00030000       9.43439300 </v>
    </varray>
    <i name="volume">    126.03984071 </i>
    <varray name="rec_basis" >
     <v>       0.34289661       0.00000007      -0.00000007 </v>
     <v>       0.00000000       0.21829457      -0.00000694 </v>
     <v>       0.00000000      -0.00000336       0.10599516 </v>
    </varray>
   </crystal>
   <varray name="positions" >
    <v>       0.25000648       0.00857776       0.86879028 </v>
    <v>       0.75000199       0.99142568       0.13119676 </v>
    <v>       0.75000762       0.50857088       0.63118943 </v>
    <v>       0.25000322       0.49139563       0.36879272 </v>
    <v>       0.24999858       0.69616196       0.54594397 </v>
    <v>       0.74999964       0.19615282       0.95405526 </v>
    <v>       0.25000046       0.80386019       0.04595654 </v>
    <v>       0.74999589       0.30384196       0.45406874 </v>
    <v>       0.24999861       0.17275076       0.21260307 </v>
    <v>       0.24999132       0.32726956       0.71260070 </v>
    <v>       0.75000156       0.67273871       0.28739946 </v>
    <v>       0.74999463       0.82725509       0.78740406 </v>
   </varray>
  </structure>
  <varray name="forces" >
   <v>      -0.00059628      -0.26287616       0.18710345 </v>
   <v>      -0.00012073       0.26395542      -0.18765669 </v>
   <v>      -0.00066055      -0.26150732      -0.18831689 </v>
   <v>      -0.00018702       0.26371357       0.18656170 </v>
   <v>       0.00017072      -0.20061190      -0.21943342 </v>
   <v>       0.00012809      -0.20036807       0.21892913 </v>
   <v>       0.00000968       0.19972353      -0.21921697 </v>
   <v>       0.00020524       0.19956161       0.21857451 </v>
   <v>       0.00011224      -0.10197526      -0.08988346 </v>
   <v>       0.00055702       0.10048628      -0.08924612 </v>
   <v>      -0.00000754      -0.10280375       0.09140174 </v>
   <v>       0.00038914       0.10270205       0.09118302 </v>
  </varray>
  <varray name="stress" >
   <v>      42.70044104      -0.00421316       0.00209299 </v>
   <v>      -0.00421231     -48.16903754      -0.06315425 </v>
   <v>       0.00209330      -0.06315567     -52.42149293 </v>
  </varray>
  <energy>
   <i name="e_fr_energy">    -92.30982297 </i>
   <i name="e_wo_entrp">    -92.30982297 </i>
   <i name="e_0_energy">     -0.00000000 </i>
  </energy>
  <time name="totalsc">    6.49    6.56</time>
 </calculation>
 <calculation>
  <scstep>
   <time name="dav">    0.19    0.19</time>
   <time name="total">    0.68    0.69</time>
   <energy>
    <i name="alphaZ">    441.37612112 </i>
    <i name="ewald">  -7307.97585289 </i>
    <i name="hartreedc">  -3778.61575321 </i>
    <i name="XCdc">    500.82888608 </i>
    <i name="pawpsdc">  12257.47011341 </i>
    <i name="pawaedc"> -12491.26454449 </i>
    <i name="eentropy">     -0.00000000 </i>
    <i name="bandstr">  -1269.81654012 </i>
    <i name="atom">  11559.05757976 </i>
    <i name="e_fr_energy">    -88.93999034 </i>
    <i name="e_wo_entrp">    -88.93999034 </i>
    <i name="e_0_energy">    -88.93999034 </i>
   </energy>
  </scstep>
  <scstep>
   <time name="diag">    0.02    0.02</time>
   <time name="diis">    0.09    0.09</time>
   <time name="orth">    0.00    0.00</time>
   <time name="total">    0.61    0.61</time>
   <energy>
    <i name="e_fr_energy">    -92.15416392 </i>
    <i name="e_wo_entrp">    -92.15416392 </i>
    <i name="e_0_energy">    -92.15416392 </i>
   </energy>
  </scstep>
  <scstep>
   <time name="diag">    0.02    0.02</time>
   <time name="diis">    0.09    0.09</time>
   <time name="orth">    0.00    0.00</time>
   <time name="total">    0.69    0.69</time>
   <energy>
    <i name="e_fr_energy">    -92.32570384 </i>
    <i name="e_wo_entrp">    -92.32570384 </i>
    <i name="e_0_energy">    -92.32570384 </i>
   </energy>
  </scstep>
  <scstep>
   <time name="diag">    0.03    0.03</time>
   <time name="diis">    0.10    0.10</time>
   <time name="orth">    0.00    0.00</time>
   <time name="total">    0.64    0.65</time>
   <energy>
    <i name="e_fr_energy">    -92.30722372 </i>
    <i name="e_wo_entrp">    -92.30722372 </i>
    <i name="e_0_energy">    -92.30722372 </i>
   </energy>
  </scstep>
  <scstep>
   <time name="diag">    0.02    0.02</time>
   <time name="diis">    0.08    0.08</time>
   <time name="orth">    0.00    0.00</time>
   <time name="total">    0.68    0.68</time>
   <energy>
    <i name="e_fr_energy">    -92.29900782 </i>
    <i name="e_wo_entrp">    -92.29900782 </i>
    <i name="e_0_energy">    -92.29900782 </i>
   </energy>
  </scstep>
  <scstep>
   <time name="diag">    0.02    0.02</time>
   <time name="diis">    0.08    0.08</time>
   <time name="orth">    0.00    0.00</time>
   <time name="total">    0.61    0.61</time>
   <energy>
    <i name="e_fr_energy">    -92.29758198 </i>
    <i name="e_wo_entrp">    -92.29758198 </i>
    <i name="e_0_energy">    -92.29758198 </i>
   </energy>
  </scstep>
  <scstep>
   <time name="diag">    0.03    0.03</time>
   <time name="diis">    0.10    0.10</time>
   <time name="orth">    0.00    0.00</time>
   <time name="total">    0.70    0.70</time>
   <energy>
    <i name="e_fr_energy">    -92.29772829 </i>
    <i name="e_wo_entrp">    -92.29772829 </i>
    <i name="e_0_energy">    -92.29772829 </i>
   </energy>
  </scstep>
  <scstep>
   <time name="diag">    0.02    0.02</time>
   <time name="diis">    0.09    0.09</time>
   <time name="orth">    0.00    0.00</time>
   <time name="total">    0.61    0.61</time>
   <energy>
    <i name="e_fr_energy">    -92.29771987 </i>
    <i name="e_wo_entrp">    -92.29771987 </i>
    <i name="e_0_energy">    -92.29771987 </i>
   </energy>
  </scstep>
  <scstep>
   <time name="diag">    0.03    0.03</time>
   <time name="diis">    0.08    0.08</time>
   <time name="orth">    0.00    0.00</time>
   <time name="total">    0.64    0.65</time>
   <energy>
    <i name="e_fr_energy">    -92.29772285 </i>
    <i name="e_wo_entrp">    -92.29772285 </i>
    <i name="e_0_energy">    -92.29772285 </i>
   </energy>
  </scstep>
  <scstep>
   <time name="diag">    0.02    0.02</time>
   <time name="diis">    0.05    0.05</time>
   <time name="orth">    0.00    0.00</time>
   <time name="total">    0.55    0.55</time>
   <energy>
    <i name="alphaZ">    441.37612112 </i>
    <i name="ewald">  -7307.97585289 </i>
    <i name="hartreedc">  -3778.52874617 </i>
    <i name="XCdc">    500.67053543 </i>
    <i name="pawpsdc">  12231.23271509 </i>
    <i name="pawaedc"> -12464.59421354 </i>
    <i name="eentropy">     -0.00000000 </i>
    <i name="bandstr">  -1273.53586118 </i>
    <i name="atom">  11559.05757976 </i>
    <i name="e_fr_energy">    -92.29772237 </i>
    <i name="e_wo_entrp">    -92.29772237 </i>
    <i name="e_0_energy">    -92.29772237 </i>
   </energy>
  </scstep>
  <structure>
   <crystal>
    <varray name="basis" >
     <v>       2.91633100       0.00000000       0.00000000 </v>
     <v>      -0.00000100       4.58096600       0.00014500 </v>
     <v>       0.00000200       0.00030000       9.43439300 </v>
    </varray>
    <i name="volume">    126.03984071 </i>
    <varray name="rec_basis" >
     <v>       0.34289661       0.00000007      -0.00000007 </v>
     <v>       0.00000000       0.21829457      -0.00000694 </v>
     <v>       0.00000000      -0.00000336       0.10599516 </v>
    </varray>
   </crystal>
   <varray name="positions" >
    <v>       0.25001594      -0.00471733       0.87003731 </v>
    <v>       0.75000425       0.00471918       0.12992843 </v>
    <v>       0.75002323       0.49522063       0.62994818 </v>
    <v>       0.25000597       0.50469939       0.37002363 </v>
    <v>       0.24999960       0.69880778       0.54720340 </v>
    <v>       0.74999980       0.19885824       0.95280671 </v>
    <v>       0.25000161       0.80117496       0.04721397 </v>
    <v>       0.74998771       0.30120636       0.45283381 </v>
    <v>       0.24999593       0.16962996       0.21630442 </v>
    <v>       0.24997752       0.33048605       0.71637576 </v>
    <v>       0.75000418       0.66953461       0.28362181 </v>
    <v>       0.74998428       0.83038117       0.78370357 </v>
   </varray>
  </structure>
  <varray name="forces" >
   <v>      -0.00136987      -0.13373891       0.10771801 </v>
   <v>      -0.00025584       0.13591034      -0.10723142 </v>
   <v>      -0.00193804      -0.12936773      -0.10772693 </v>
   <v>      -0.00030235       0.13521122       0.10533249 </v>
   <v>       0.00026990      -0.56937660      -0.44132299 </v>
   <v>       0.00020479      -0.56875257       0.43970618 </v>
   <v>      -0.00000595       0.56815918      -0.44109853 </v>
   <v>       0.00050579       0.56590406       0.43789449 </v>
   <v>       0.00029690      -0.14370134      -0.61561076 </v>
   <v>       0.00159417       0.13788620      -0.61832622 </v>
   <v>      -0.00010315      -0.14335256       0.62278768 </v>
   <v>       0.00110365       0.14521871       0.61787801 </v>
  </varray>
  <varray name="stress" >
   <v>      28.21956148      -0.01519552       0.00749672 </v>
   <v>      -0.01519508     -47.27434477      -0.04902188 </v>
   <v>       0.00749804      -0.04903548     -59.31244961 </v>
  </varray>
  <energy>
   <i name="e_fr_energy">    -92.29772237 </i>
   <i name="e_wo_entrp">    -92.29772237 </i>
   <i name="e_0_energy">     -0.00000000 </i>
  </energy>
  <time name="totalsc">    7.80    7.85</time>
 </calculation>
 <calculation>
  <scstep>
   <time name="dav">    0.20    0.20</time>
   <time name="total">    0.68    0.70</time>
   <energy>
    <i name="alphaZ">    441.37612112 </i>
    <i name="ewald">  -7293.76746320 </i>
    <i name="hartreedc">  -3791.86862410 </i>
    <i name="XCdc">    500.81271445 </i>
    <i name="pawpsdc">  12231.29540887 </i>
    <i name="pawaedc"> -12464.65812357 </i>
    <i name="eentropy">     -0.00000000 </i>
    <i name="bandstr">  -1273.14414879 </i>
    <i name="atom">  11559.05757976 </i>
    <i name="e_fr_energy">    -90.89653546 </i>
    <i name="e_wo_entrp">    -90.89653546 </i>
    <i name="e_0_energy">    -90.89653546 </i>
   </energy>
  </scstep>
  <scstep>
   <time name="diag">    0.02    0.02</time>
   <time name="diis">    0.10    0.10</time>
   <time name="orth">    0.00    0.00</time>
   <time name="total">    0.60    0.61</time>
   <energy>
    <i name="e_fr_energy">    -92.25145128 </i>
    <i name="e_wo_entrp">    -92.25145128 </i>
    <i name="e_0_energy">    -92.25145128 </i>
   </energy>
  </scstep>
  <scstep>
   <time name="diag">    0.03    0.03</time>
   <time name="diis">    0.09    0.09</time>
   <time name="orth">    0.00    0.00</time>
   <time name="total">    0.66    0.66</time>
   <energy>
    <i name="e_fr_energy">    -92.33301227 </i>
    <i name="e_wo_entrp">    -92.33301227 </i>
    <i name="e_0_energy">    -92.33301227 </i>
   </energy>
  </scstep>
  <scstep>
   <time name="diag">    0.03    0.03</time>
   <time name="diis">    0.11    0.11</time>
   <time name="orth">    0.00    0.00</time>
   <time name="total">    0.63    0.64</time>
   <energy>
    <i name="e_fr_energy">    -92.32488870 </i>
    <i name="e_wo_entrp">    -92.32488870 </i>
    <i name="e_0_energy">    -92.32488870 </i>
   </energy>
  </scstep>
  <scstep>
   <time name="diag">    0.02    0.02</time>
   <time name="diis">    0.10    0.10</time>
   <time name="orth">    0.00    0.00</time>
   <time name="total">    0.63    0.63</time>
   <energy>
    <i name="e_fr_energy">    -92.32165268 </i>
    <i name="e_wo_entrp">    -92.32165268 </i>
    <i name="e_0_energy">    -92.32165268 </i>
   </energy>
  </scstep>
  <scstep>
   <time name="diag">    0.03    0.03</time>
   <time name="diis">    0.08    0.08</time>
   <time name="orth">    0.01    0.01</time>
   <time name="total">    0.60    0.60</time>
   <energy>
    <i name="e_fr_energy">    -92.32078290 </i>
    <i name="e_wo_entrp">    -92.32078290 </i>
    <i name="e_0_energy">    -92.32078290 </i>
   </energy>
  </scstep>
  <scstep>
   <time name="diag">    0.02    0.02</time>
   <time name="diis">    0.09    0.09</time>
   <time name="orth">    0.00    0.00</time>
   <time name="total">    0.66    0.67</time>
   <energy>
    <i name="e_fr_energy">    -92.32079897 </i>
    <i name="e_wo_entrp">    -92.32079897 </i>
    <i name="e_0_energy">    -92.32079897 </i>
   </energy>
  </scstep>
  <scstep>
   <time name="diag">    0.02    0.02</time>
   <time name="diis">    0.08    0.08</time>
   <time name="orth">    0.00    0.00</time>
   <time name="total">    0.57    0.57</time>
   <energy>
    <i name="alphaZ">    441.37612112 </i>
    <i name="ewald">  -7293.76746320 </i>
    <i name="hartreedc">  -3790.68532569 </i>
    <i name="XCdc">    500.79058205 </i>
    <i name="pawpsdc">  12252.85960851 </i>
    <i name="pawaedc"> -12486.50768285 </i>
    <i name="eentropy">     -0.00000000 </i>
    <i name="bandstr">  -1275.44422147 </i>
    <i name="atom">  11559.05757976 </i>
    <i name="e_fr_energy">    -92.32080177 </i>
    <i name="e_wo_entrp">    -92.32080177 </i>
    <i name="e_0_energy">    -92.32080177 </i>
   </energy>
  </scstep>
  <structure>
   <crystal>
    <varray name="basis" >
     <v>       2.91633100       0.00000000       0.00000000 </v>
     <v>      -0.00000100       4.58096600       0.00014500 </v>
     <v>       0.00000200       0.00030000       9.43439300 </v>
    </varray>
    <i name="volume">    126.03984071 </i>
    <varray name="rec_basis" >
     <v>       0.34289661       0.00000007      -0.00000007 </v>
     <v>       0.00000000       0.21829457      -0.00000694 </v>
     <v>       0.00000000      -0.00000336       0.10599516 </v>
    </varray>
   </crystal>
   <varray name="positions" >
    <v>       0.25000968       0.00407794       0.86921235 </v>
    <v>       0.75000275      -0.00407503       0.13076748 </v>
    <v>       0.75001290       0.50405239       0.63076932 </v>
    <v>       0.25000415       0.49589839       0.36920933 </v>
    <v>       0.24999893       0.69705745       0.54637023 </v>
    <v>       0.74999969       0.19706849       0.95363268 </v>
    <v>       0.25000085       0.80295135       0.04638212 </v>
    <v>       0.74999312       0.30294992       0.45365077 </v>
    <v>       0.24999770       0.17169450       0.21385582 </v>
    <v>       0.24998665       0.32835820       0.71387840 </v>
    <v>       0.75000245       0.67165426       0.28612089 </v>
    <v>       0.74999113       0.82831314       0.78615160 </v>
   </varray>
  </structure>
  <varray name="forces" >
   <v>      -0.00076726      -0.26544571       0.18074494 </v>
   <v>      -0.00053804       0.26693443      -0.18101482 </v>
   <v>      -0.00105970      -0.26337676      -0.18222621 </v>
   <v>      -0.00020895       0.26638206       0.17996453 </v>
   <v>       0.00024544      -0.32597907      -0.30527680 </v>
   <v>       0.00018020      -0.32571623       0.30444176 </v>
   <v>       0.00003589       0.32515461      -0.30505932 </v>
   <v>       0.00032815       0.32435619       0.30363760 </v>
   <v>       0.00019997      -0.13035944      -0.24442424 </v>
   <v>       0.00091565       0.12763129      -0.24461809 </v>
   <v>      -0.00002040      -0.13099495       0.24779583 </v>
   <v>       0.00068905       0.13141358       0.24603482 </v>
  </varray>
  <varray name="stress" >
   <v>      38.61710087      -0.00644615       0.00815325 </v>
   <v>      -0.00644527     -46.38449997      -0.05815391 </v>
   <v>       0.00815394      -0.05815879     -53.23923608 </v>
  </varray>
  <energy>
   <i name="e_fr_energy">    -92.32080177 </i>
   <i name="e_wo_entrp">    -92.32080177 </i>
   <i name="e_0_energy">     -0.00000000 </i>
  </energy>
  <time name="totalsc">    6.38    6.42</time>
 </calculation>
 <calculation>
  <scstep>
   <time name="dav">    0.18    0.18</time>
   <time name="total">    0.66    0.67</time>
   <energy>
    <i name="alphaZ">    441.37612112 </i>
    <i name="ewald">  -7296.59960708 </i>
    <i name="hartreedc">  -3788.15125527 </i>
    <i name="XCdc">    500.77494094 </i>
    <i name="pawpsdc">  12249.06118828 </i>
    <i name="pawaedc"> -12482.72446846 </i>
    <i name="eentropy">     -0.00000000 </i>
    <i name="bandstr">  -1275.04101120 </i>
    <i name="atom">  11559.05757976 </i>
    <i name="e_fr_energy">    -92.24651192 </i>
    <i name="e_wo_entrp">    -92.24651192 </i>
    <i name="e_0_energy">    -92.24651192 </i>
   </energy>
  </scstep>
  <scstep>
   <time name="diag">    0.02    0.02</time>
   <time name="diis">    0.10    0.10</time>
[...]
        <r>  0.0000  0.0000  0.0000  0.0309  0.0000  0.0000  0.0000  0.0000  0.0000 </r>
        <r>  0.0000  0.0000  0.0000  0.0327  0.0000  0.0000  0.0000  0.0000  0.0000 </r>
        <r>  0.0000  0.0000  0.0000  0.0794  0.0000  0.0000  0.0000  0.0000  0.0000 </r>
        <r>  0.0000  0.0000  0.0000  0.0732  0.0000  0.0000  0.0000  0.0000  0.0000 </r>
        <r>  0.0000  0.0000  0.0000  0.0088  0.0000  0.0000  0.0000  0.0000  0.0000 </r>
        <r>  0.0000  0.0000  0.0000  0.0126  0.0000  0.0000  0.0000  0.0000  0.0000 </r>
        <r>  0.0000  0.0000  0.0000  0.0077  0.0000  0.0000  0.0000  0.0000  0.0000 </r>
        <r>  0.0000  0.0000  0.0000  0.0132  0.0000  0.0000  0.0000  0.0000  0.0000 </r>
       </set>
       <set comment="band 45">
        <r>  0.0003  0.0002  0.0034  0.0000  0.0000  0.0006  0.0007  0.0000  0.0045 </r>
        <r>  0.0000  0.0000  0.0024  0.0000  0.0000  0.0011  0.0000  0.0000  0.0019 </r>
        <r>  0.0003  0.0002  0.0034  0.0000  0.0000  0.0005  0.0006  0.0000  0.0044 </r>
        <r>  0.0000  0.0000  0.0025  0.0000  0.0000  0.0011  0.0000  0.0000  0.0018 </r>
        <r>  0.0002  0.1038  0.0288  0.0000  0.0000  0.0000  0.0000  0.0000  0.0000 </r>
        <r>  0.0002  0.1068  0.0282  0.0000  0.0000  0.0000  0.0000  0.0000  0.0000 </r>
        <r>  0.0005  0.0781  0.0261  0.0000  0.0000  0.0000  0.0000  0.0000  0.0000 </r>
        <r>  0.0005  0.0757  0.0264  0.0000  0.0000  0.0000  0.0000  0.0000  0.0000 </r>
        <r>  0.0000  0.0104  0.0634  0.0000  0.0000  0.0000  0.0000  0.0000  0.0000 </r>
        <r>  0.0001  0.0095  0.0645  0.0000  0.0000  0.0000  0.0000  0.0000  0.0000 </r>
        <r>  0.0000  0.0101  0.0618  0.0000  0.0000  0.0000  0.0000  0.0000  0.0000 </r>
        <r>  0.0001  0.0094  0.0663  0.0000  0.0000  0.0000  0.0000  0.0000  0.0000 </r>
       </set>
       <set comment="band 46">
        <r>  0.0000  0.0000  0.0000  0.0010  0.0702  0.0000  0.0000  0.1299  0.0000 </r>
        <r>  0.0000  0.0000  0.0000  0.0108  0.0308  0.0000  0.0000  0.0132  0.0000 </r>
        <r>  0.0000  0.0000  0.0000  0.0011  0.0760  0.0000  0.0000  0.1387  0.0000 </r>
        <r>  0.0000  0.0000  0.0000  0.0112  0.0335  0.0000  0.0000  0.0139  0.0000 </r>
        <r>  0.0000  0.0000  0.0000  0.0256  0.0000  0.0000  0.0000  0.0000  0.0000 </r>
        <r>  0.0000  0.0000  0.0000  0.0239  0.0000  0.0000  0.0000  0.0000  0.0000 </r>
        <r>  0.0000  0.0000  0.0000  0.1219  0.0000  0.0000  0.0000  0.0000  0.0000 </r>
        <r>  0.0000  0.0000  0.0000  0.1283  0.0000  0.0000  0.0000  0.0000  0.0000 </r>
        <r>  0.0000  0.0000  0.0000  0.0292  0.0000  0.0000  0.0000  0.0000  0.0000 </r>
        <r>  0.0000  0.0000  0.0000  0.0080  0.0000  0.0000  0.0000  0.0000  0.0000 </r>
        <r>  0.0000  0.0000  0.0000  0.0302  0.0000  0.0000  0.0000  0.0000  0.0000 </r>
        <r>  0.0000  0.0000  0.0000  0.0074  0.0000  0.0000  0.0000  0.0000  0.0000 </r>
       </set>
       <set comment="band 47">
        <r>  0.0009  0.0012  0.0001  0.0000  0.0000  0.1182  0.0062  0.0000  0.0099 </r>
        <r>  0.0025  0.0023  0.0010  0.0000  0.0000  0.0003  0.0066  0.0000  0.0108 </r>
        <r>  0.0011  0.0012  0.0001  0.0000  0.0000  0.1217  0.0062  0.0000  0.0116 </r>
        <r>  0.0025  0.0023  0.0010  0.0000  0.0000  0.0003  0.0068  0.0000  0.0110 </r>
        <r>  0.0002  0.0010  0.0005  0.0000  0.0000  0.0000  0.0000  0.0000  0.0000 </r>
        <r>  0.0002  0.0008  0.0005  0.0000  0.0000  0.0000  0.0000  0.0000  0.0000 </r>
        <r>  0.0010  0.1341  0.0161  0.0000  0.0000  0.0000  0.0000  0.0000  0.0000 </r>
        <r>  0.0010  0.1363  0.0163  0.0000  0.0000  0.0000  0.0000  0.0000  0.0000 </r>
        <r>  0.0005  0.0709  0.0008  0.0000  0.0000  0.0000  0.0000  0.0000  0.0000 </r>
        <r>  0.0002  0.0376  0.0024  0.0000  0.0000  0.0000  0.0000  0.0000  0.0000 </r>
        <r>  0.0005  0.0712  0.0008  0.0000  0.0000  0.0000  0.0000  0.0000  0.0000 </r>
        <r>  0.0002  0.0361  0.0025  0.0000  0.0000  0.0000  0.0000  0.0000  0.0000 </r>
       </set>
       <set comment="band 48">
        <r>  0.0259  0.0000  0.0043  0.0000  0.0000  0.1082  0.0001  0.0000  0.1985 </r>
        <r>  0.0000  0.0001  0.0000  0.0000  0.0000  0.0018  0.0038  0.0000  0.0001 </r>
        <r>  0.0257  0.0001  0.0043  0.0000  0.0000  0.1038  0.0001  0.0000  0.1977 </r>
        <r>  0.0000  0.0001  0.0000  0.0000  0.0000  0.0018  0.0038  0.0000  0.0001 </r>
        <r>  0.0049  0.0035  0.0020  0.0000  0.0000  0.0000  0.0000  0.0000  0.0000 </r>
        <r>  0.0049  0.0033  0.0020  0.0000  0.0000  0.0000  0.0000  0.0000  0.0000 </r>
        <r>  0.0000  0.0092  0.0004  0.0000  0.0000  0.0000  0.0000  0.0000  0.0000 </r>
        <r>  0.0000  0.0082  0.0003  0.0000  0.0000  0.0000  0.0000  0.0000  0.0000 </r>
        <r>  0.0001  0.0005  0.0002  0.0000  0.0000  0.0000  0.0000  0.0000  0.0000 </r>
        <r>  0.0003  0.0661  0.0220  0.0000  0.0000  0.0000  0.0000  0.0000  0.0000 </r>
        <r>  0.0001  0.0003  0.0002  0.0000  0.0000  0.0000  0.0000  0.0000  0.0000 </r>
        <r>  0.0003  0.0677  0.0222  0.0000  0.0000  0.0000  0.0000  0.0000  0.0000 </r>
       </set>
       <set comment="band 49">
        <r>  0.0000  0.0012  0.0004  0.0000  0.0000  0.1431  0.0769  0.0000  0.1014 </r>
        <r>  0.0010  0.0002  0.0042  0.0000  0.0000  0.0016  0.0022  0.0000  0.0013 </r>
        <r>  0.0000  0.0012  0.0004  0.0000  0.0000  0.1433  0.0772  0.0000  0.1017 </r>
        <r>  0.0011  0.0002  0.0043  0.0000  0.0000  0.0016  0.0022  0.0000  0.0013 </r>
        <r>  0.0000  0.0127  0.0070  0.0000  0.0000  0.0000  0.0000  0.0000  0.0000 </r>
        <r>  0.0000  0.0127  0.0069  0.0000  0.0000  0.0000  0.0000  0.0000  0.0000 </r>
        <r>  0.0000  0.0404  0.0108  0.0000  0.0000  0.0000  0.0000  0.0000  0.0000 </r>
        <r>  0.0000  0.0405  0.0109  0.0000  0.0000  0.0000  0.0000  0.0000  0.0000 </r>
        <r>  0.0002  0.0132  0.0008  0.0000  0.0000  0.0000  0.0000  0.0000  0.0000 </r>
        <r>  0.0041  0.0040  0.0315  0.0000  0.0000  0.0000  0.0000  0.0000  0.0000 </r>
        <r>  0.0002  0.0132  0.0008  0.0000  0.0000  0.0000  0.0000  0.0000  0.0000 </r>
        <r>  0.0041  0.0040  0.0314  0.0000  0.0000  0.0000  0.0000  0.0000  0.0000 </r>
       </set>
       <set comment="band 50">
        <r>  0.0071  0.0003  0.0005  0.0000  0.0000  0.0014  0.0860  0.0000  0.1216 </r>
        <r>  0.0002  0.0001  0.0003  0.0000  0.0000  0.0096  0.0027  0.0000  0.0007 </r>
        <r>  0.0071  0.0003  0.0005  0.0000  0.0000  0.0014  0.0857  0.0000  0.1212 </r>
        <r>  0.0002  0.0001  0.0003  0.0000  0.0000  0.0095  0.0027  0.0000  0.0007 </r>
        <r>  0.0029  0.0068  0.0039  0.0000  0.0000  0.0000  0.0000  0.0000  0.0000 </r>
        <r>  0.0029  0.0068  0.0040  0.0000  0.0000  0.0000  0.0000  0.0000  0.0000 </r>
        <r>  0.0001  0.0381  0.0117  0.0000  0.0000  0.0000  0.0000  0.0000  0.0000 </r>
        <r>  0.0001  0.0383  0.0116  0.0000  0.0000  0.0000  0.0000  0.0000  0.0000 </r>
        <r>  0.0000  0.0045  0.0046  0.0000  0.0000  0.0000  0.0000  0.0000  0.0000 </r>
        <r>  0.0000  0.1361  0.0012  0.0000  0.0000  0.0000  0.0000  0.0000  0.0000 </r>
        <r>  0.0000  0.0045  0.0046  0.0000  0.0000  0.0000  0.0000  0.0000  0.0000 </r>
        <r>  0.0000  0.1365  0.0013  0.0000  0.0000  0.0000  0.0000  0.0000  0.0000 </r>
       </set>
       <set comment="band 51">
        <r>  0.0000  0.0000  0.0000  0.0048  0.0062  0.0000  0.0000  0.0220  0.0000 </r>
        <r>  0.0000  0.0000  0.0000  0.0006  0.1099  0.0000  0.0000  0.2649  0.0000 </r>
        <r>  0.0000  0.0000  0.0000  0.0051  0.0064  0.0000  0.0000  0.0238  0.0000 </r>
        <r>  0.0000  0.0000  0.0000  0.0007  0.1172  0.0000  0.0000  0.2787  0.0000 </r>
        <r>  0.0000  0.0000  0.0000  0.0181  0.0000  0.0000  0.0000  0.0000  0.0000 </r>
        <r>  0.0000  0.0000  0.0000  0.0173  0.0000  0.0000  0.0000  0.0000  0.0000 </r>
        <r>  0.0000  0.0000  0.0000  0.0063  0.0000  0.0000  0.0000  0.0000  0.0000 </r>
        <r>  0.0000  0.0000  0.0000  0.0069  0.0000  0.0000  0.0000  0.0000  0.0000 </r>
        <r>  0.0000  0.0000  0.0000  0.0032  0.0000  0.0000  0.0000  0.0000  0.0000 </r>
        <r>  0.0000  0.0000  0.0000  0.0238  0.0000  0.0000  0.0000  0.0000  0.0000 </r>
        <r>  0.0000  0.0000  0.0000  0.0035  0.0000  0.0000  0.0000  0.0000  0.0000 </r>
        <r>  0.0000  0.0000  0.0000  0.0226  0.0000  0.0000  0.0000  0.0000  0.0000 </r>
       </set>
       <set comment="band 52">
        <r>  0.0029  0.0002  0.0001  0.0000  0.0000  0.0004  0.0060  0.0000  0.0001 </r>
        <r>  0.0027  0.0009  0.0006  0.0000  0.0000  0.3382  0.0193  0.0000  0.0373 </r>
        <r>  0.0029  0.0002  0.0002  0.0000  0.0000  0.0005  0.0058  0.0000  0.0001 </r>
        <r>  0.0027  0.0009  0.0006  0.0000  0.0000  0.3383  0.0192  0.0000  0.0371 </r>
        <r>  0.0003  0.0229  0.0122  0.0000  0.0000  0.0000  0.0000  0.0000  0.0000 </r>
        <r>  0.0003  0.0231  0.0122  0.0000  0.0000  0.0000  0.0000  0.0000  0.0000 </r>
        <r>  0.0004  0.0025  0.0018  0.0000  0.0000  0.0000  0.0000  0.0000  0.0000 </r>
        <r>  0.0004  0.0024  0.0019  0.0000  0.0000  0.0000  0.0000  0.0000  0.0000 </r>
        <r>  0.0000  0.0082  0.0018  0.0000  0.0000  0.0000  0.0000  0.0000  0.0000 </r>
        <r>  0.0005  0.0030  0.0019  0.0000  0.0000  0.0000  0.0000  0.0000  0.0000 </r>
        <r>  0.0000  0.0082  0.0018  0.0000  0.0000  0.0000  0.0000  0.0000  0.0000 </r>
        <r>  0.0005  0.0030  0.0020  0.0000  0.0000  0.0000  0.0000  0.0000  0.0000 </r>
       </set>
       <set comment="band 53">
        <r>  0.0000  0.0000  0.0000  0.0046  0.0047  0.0000  0.0000  0.0417  0.0000 </r>
        <r>  0.0000  0.0000  0.0000  0.0025  0.1497  0.0000  0.0000  0.2287  0.0000 </r>
        <r>  0.0000  0.0000  0.0000  0.0043  0.0044  0.0000  0.0000  0.0401  0.0000 </r>
        <r>  0.0000  0.0000  0.0000  0.0024  0.1423  0.0000  0.0000  0.2151  0.0000 </r>
        <r>  0.0000  0.0000  0.0000  0.0092  0.0000  0.0000  0.0000  0.0000  0.0000 </r>
        <r>  0.0000  0.0000  0.0000  0.0100  0.0000  0.0000  0.0000  0.0000  0.0000 </r>
        <r>  0.0000  0.0000  0.0000  0.0165  0.0000  0.0000  0.0000  0.0000  0.0000 </r>
        <r>  0.0000  0.0000  0.0000  0.0159  0.0000  0.0000  0.0000  0.0000  0.0000 </r>
        <r>  0.0000  0.0000  0.0000  0.0061  0.0000  0.0000  0.0000  0.0000  0.0000 </r>
        <r>  0.0000  0.0000  0.0000  0.0206  0.0000  0.0000  0.0000  0.0000  0.0000 </r>
        <r>  0.0000  0.0000  0.0000  0.0058  0.0000  0.0000  0.0000  0.0000  0.0000 </r>
        <r>  0.0000  0.0000  0.0000  0.0219  0.0000  0.0000  0.0000  0.0000  0.0000 </r>
       </set>
       <set comment="band 54">
        <r>  0.0002  0.0009  0.0051  0.0000  0.0000  0.0287  0.1149  0.0000  0.0142 </r>
        <r>  0.0107  0.0020  0.0025  0.0000  0.0000  0.0196  0.0015  0.0000  0.1555 </r>
        <r>  0.0002  0.0009  0.0052  0.0000  0.0000  0.0287  0.1151  0.0000  0.0142 </r>
        <r>  0.0106  0.0020  0.0025  0.0000  0.0000  0.0195  0.0015  0.0000  0.1551 </r>
        <r>  0.0006  0.0118  0.0037  0.0000  0.0000  0.0000  0.0000  0.0000  0.0000 </r>
        <r>  0.0006  0.0117  0.0037  0.0000  0.0000  0.0000  0.0000  0.0000  0.0000 </r>
        <r>  0.0039  0.0006  0.0421  0.0000  0.0000  0.0000  0.0000  0.0000  0.0000 </r>
        <r>  0.0039  0.0006  0.0422  0.0000  0.0000  0.0000  0.0000  0.0000  0.0000 </r>
        <r>  0.0007  0.0086  0.0012  0.0000  0.0000  0.0000  0.0000  0.0000  0.0000 </r>
        <r>  0.0021  0.0066  0.0134  0.0000  0.0000  0.0000  0.0000  0.0000  0.0000 </r>
        <r>  0.0007  0.0087  0.0012  0.0000  0.0000  0.0000  0.0000  0.0000  0.0000 </r>
        <r>  0.0021  0.0065  0.0134  0.0000  0.0000  0.0000  0.0000  0.0000  0.0000 </r>
       </set>
       <set comment="band 55">
        <r>  0.0003  0.0006  0.0022  0.0000  0.0000  0.0143  0.0743  0.0000  0.0032 </r>
        <r>  0.0126  0.0003  0.0012  0.0000  0.0000  0.1258  0.0059  0.0000  0.0866 </r>
        <r>  0.0003  0.0006  0.0022  0.0000  0.0000  0.0144  0.0743  0.0000  0.0032 </r>
        <r>  0.0127  0.0003  0.0012  0.0000  0.0000  0.1267  0.0060  0.0000  0.0867 </r>
        <r>  0.0008  0.0313  0.0014  0.0000  0.0000  0.0000  0.0000  0.0000  0.0000 </r>
        <r>  0.0008  0.0311  0.0014  0.0000  0.0000  0.0000  0.0000  0.0000  0.0000 </r>
        <r>  0.0001  0.0087  0.0207  0.0000  0.0000  0.0000  0.0000  0.0000  0.0000 </r>
        <r>  0.0001  0.0087  0.0208  0.0000  0.0000  0.0000  0.0000  0.0000  0.0000 </r>
        <r>  0.0010  0.0212  0.0171  0.0000  0.0000  0.0000  0.0000  0.0000  0.0000 </r>
        <r>  0.0009  0.0081  0.0109  0.0000  0.0000  0.0000  0.0000  0.0000  0.0000 </r>
        <r>  0.0010  0.0212  0.0172  0.0000  0.0000  0.0000  0.0000  0.0000  0.0000 </r>
        <r>  0.0009  0.0080  0.0109  0.0000  0.0000  0.0000  0.0000  0.0000  0.0000 </r>
       </set>
       <set comment="band 56">
        <r>  0.0027  0.0000  0.0001  0.0000  0.0000  0.0042  0.0092  0.0000  0.0210 </r>
        <r>  0.0070  0.0000  0.0011  0.0000  0.0000  0.0008  0.1808  0.0000  0.1478 </r>
        <r>  0.0027  0.0000  0.0001  0.0000  0.0000  0.0041  0.0091  0.0000  0.0210 </r>
        <r>  0.0070  0.0000  0.0011  0.0000  0.0000  0.0009  0.1818  0.0000  0.1490 </r>
        <r>  0.0002  0.0264  0.0062  0.0000  0.0000  0.0000  0.0000  0.0000  0.0000 </r>
        <r>  0.0002  0.0263  0.0062  0.0000  0.0000  0.0000  0.0000  0.0000  0.0000 </r>
        <r>  0.0046  0.0000  0.0003  0.0000  0.0000  0.0000  0.0000  0.0000  0.0000 </r>
        <r>  0.0046  0.0000  0.0003  0.0000  0.0000  0.0000  0.0000  0.0000  0.0000 </r>
        <r>  0.0002  0.0384  0.0032  0.0000  0.0000  0.0000  0.0000  0.0000  0.0000 </r>
        <r>  0.0000  0.0039  0.0009  0.0000  0.0000  0.0000  0.0000  0.0000  0.0000 </r>
        <r>  0.0002  0.0386  0.0032  0.0000  0.0000  0.0000  0.0000  0.0000  0.0000 </r>
        <r>  0.0000  0.0039  0.0009  0.0000  0.0000  0.0000  0.0000  0.0000  0.0000 </r>
       </set>
       <set comment="band 57">
        <r>  0.0015  0.0001  0.0043  0.0000  0.0000  0.0035  0.0172  0.0000  0.0001 </r>
        <r>  0.0011  0.0002  0.0009  0.0000  0.0000  0.2004  0.0428  0.0000  0.1310 </r>
        <r>  0.0014  0.0001  0.0043  0.0000  0.0000  0.0036  0.0174  0.0000  0.0001 </r>
        <r>  0.0011  0.0002  0.0009  0.0000  0.0000  0.1997  0.0421  0.0000  0.1299 </r>
        <r>  0.0009  0.0055  0.0065  0.0000  0.0000  0.0000  0.0000  0.0000  0.0000 </r>
        <r>  0.0009  0.0056  0.0065  0.0000  0.0000  0.0000  0.0000  0.0000  0.0000 </r>
        <r>  0.0006  0.0202  0.0191  0.0000  0.0000  0.0000  0.0000  0.0000  0.0000 </r>
        <r>  0.0006  0.0202  0.0191  0.0000  0.0000  0.0000  0.0000  0.0000  0.0000 </r>
        <r>  0.0039  0.0011  0.0096  0.0000  0.0000  0.0000  0.0000  0.0000  0.0000 </r>
        <r>  0.0003  0.0002  0.0050  0.0000  0.0000  0.0000  0.0000  0.0000  0.0000 </r>
        <r>  0.0039  0.0011  0.0096  0.0000  0.0000  0.0000  0.0000  0.0000  0.0000 </r>
        <r>  0.0004  0.0002  0.0050  0.0000  0.0000  0.0000  0.0000  0.0000  0.0000 </r>
       </set>
       <set comment="band 58">
        <r>  0.0012  0.0002  0.0077  0.0000  0.0000  0.0432  0.1309  0.0000  0.0784 </r>
        <r>  0.0000  0.0002  0.0005  0.0000  0.0000  0.0070  0.0138  0.0000  0.0112 </r>
        <r>  0.0012  0.0001  0.0077  0.0000  0.0000  0.0432  0.1307  0.0000  0.0781 </r>
        <r>  0.0000  0.0002  0.0005  0.0000  0.0000  0.0068  0.0141  0.0000  0.0111 </r>
        <r>  0.0012  0.0041  0.0023  0.0000  0.0000  0.0000  0.0000  0.0000  0.0000 </r>
        <r>  0.0012  0.0041  0.0023  0.0000  0.0000  0.0000  0.0000  0.0000  0.0000 </r>
        <r>  0.0019  0.0041  0.0560  0.0000  0.0000  0.0000  0.0000  0.0000  0.0000 </r>
        <r>  0.0019  0.0040  0.0560  0.0000  0.0000  0.0000  0.0000  0.0000  0.0000 </r>
        <r>  0.0009  0.0051  0.0059  0.0000  0.0000  0.0000  0.0000  0.0000  0.0000 </r>
        <r>  0.0001  0.0301  0.0632  0.0000  0.0000  0.0000  0.0000  0.0000  0.0000 </r>
        <r>  0.0009  0.0052  0.0059  0.0000  0.0000  0.0000  0.0000  0.0000  0.0000 </r>
        <r>  0.0002  0.0302  0.0632  0.0000  0.0000  0.0000  0.0000  0.0000  0.0000 </r>
       </set>
       <set comment="band 59">
        <r>  0.0003  0.0010  0.0000  0.0000  0.0000  0.0009  0.0000  0.0000  0.0010 </r>
        <r>  0.0000  0.0004  0.0073  0.0000  0.0000  0.0406  0.2885  0.0000  0.0004 </r>
        <r>  0.0003  0.0010  0.0000  0.0000  0.0000  0.0010  0.0000  0.0000  0.0011 </r>
        <r>  0.0000  0.0004  0.0073  0.0000  0.0000  0.0404  0.2876  0.0000  0.0004 </r>
        <r>  0.0027  0.0093  0.0452  0.0000  0.0000  0.0000  0.0000  0.0000  0.0000 </r>
        <r>  0.0027  0.0093  0.0454  0.0000  0.0000  0.0000  0.0000  0.0000  0.0000 </r>
        <r>  0.0034  0.0099  0.0010  0.0000  0.0000  0.0000  0.0000  0.0000  0.0000 </r>
        <r>  0.0034  0.0099  0.0010  0.0000  0.0000  0.0000  0.0000  0.0000  0.0000 </r>
        <r>  0.0025  0.0142  0.0277  0.0000  0.0000  0.0000  0.0000  0.0000  0.0000 </r>
        <r>  0.0002  0.0002  0.0005  0.0000  0.0000  0.0000  0.0000  0.0000  0.0000 </r>
        <r>  0.0026  0.0141  0.0276  0.0000  0.0000  0.0000  0.0000  0.0000  0.0000 </r>
        <r>  0.0002  0.0002  0.0005  0.0000  0.0000  0.0000  0.0000  0.0000  0.0000 </r>
       </set>
       <set comment="band 60">
        <r>  0.0000  0.0000  0.0000  0.0051  0.1452  0.0000  0.0000  0.0833  0.0000 </r>
        <r>  0.0000  0.0000  0.0000  0.0012  0.0480  0.0000  0.0000  0.0010  0.0000 </r>
        <r>  0.0000  0.0000  0.0000  0.0050  0.1438  0.0000  0.0000  0.0826  0.0000 </r>
        <r>  0.0000  0.0000  0.0000  0.0012  0.0474  0.0000  0.0000  0.0010  0.0000 </r>
        <r>  0.0000  0.0000  0.0000  0.0915  0.0000  0.0000  0.0000  0.0000  0.0000 </r>
        <r>  0.0000  0.0000  0.0000  0.0923  0.0000  0.0000  0.0000  0.0000  0.0000 </r>
        <r>  0.0000  0.0000  0.0000  0.0056  0.0000  0.0000  0.0000  0.0000  0.0000 </r>
        <r>  0.0000  0.0000  0.0000  0.0056  0.0000  0.0000  0.0000  0.0000  0.0000 </r>
        <r>  0.0000  0.0000  0.0000  0.0033  0.0000  0.0000  0.0000  0.0000  0.0000 </r>
        <r>  0.0000  0.0000  0.0000  0.0817  0.0000  0.0000  0.0000  0.0000  0.0000 </r>
        <r>  0.0000  0.0000  0.0000  0.0033  0.0000  0.0000  0.0000  0.0000  0.0000 </r>
        <r>  0.0000  0.0000  0.0000  0.0825  0.0000  0.0000  0.0000  0.0000  0.0000 </r>
       </set>
      </set>
     </set>
    </set>
   </array>
  </projected>
 </calculation>
 <structure name="finalpos" >
  <crystal>
   <varray name="basis" >
    <v>       2.91633100       0.00000000       0.00000000 </v>
    <v>      -0.00000100       4.58096600       0.00014500 </v>
    <v>       0.00000200       0.00030000       9.43439300 </v>
   </varray>
   <i name="volume">    126.03984071 </i>
   <varray name="rec_basis" >
    <v>       0.34289661       0.00000007      -0.00000007 </v>
    <v>       0.00000000       0.21829457      -0.00000694 </v>
    <v>       0.00000000      -0.00000336       0.10599516 </v>
   </varray>
  </crystal>
  <varray name="positions" >
   <v>       0.24999148      -0.06368303       0.87686983 </v>
   <v>       0.74998751       0.06382362       0.12308829 </v>
   <v>       0.75000182       0.43619566       0.62307486 </v>
   <v>       0.24998391       0.56366603       0.37686771 </v>
   <v>       0.25001245       0.68415372       0.55518806 </v>
   <v>       0.75000974       0.18442738       0.94479955 </v>
   <v>       0.24999218       0.81586142       0.05519702 </v>
   <v>       0.74998308       0.31555533       0.44480297 </v>
   <v>       0.24999419       0.22467217       0.19829333 </v>
   <v>       0.25003956       0.27533216       0.69829684 </v>
   <v>       0.74998510       0.72450157       0.30176039 </v>
   <v>       0.75001899       0.77549497       0.80176215 </v>
  </varray>
 </structure>
</modeling>
