unknown system                          
           1
     2.916331    0.000000    0.000000
    -0.000001    4.580966    0.000145
     0.000002    0.000300    9.434393
   Mn   O 
   4   8
Direct configuration=     1
   0.25000000  0.02126500  0.86501400
   0.74999900  0.97874100  0.13499200
   0.75000000  0.52131000  0.63496800
   0.25000100  0.47868900  0.36502400
   0.25000000  0.71244700  0.53693000
   0.75000000  0.21232300  0.96305200
   0.25000000  0.78767800  0.03695300
   0.75000000  0.28755100  0.46306600
   0.25000000  0.19132200  0.21631000
   0.25000000  0.30854000  0.71624800
   0.75000000  0.69145800  0.28375200
   0.75000000  0.80867700  0.78369200
Direct configuration=     2
   0.24999646  0.01965384  0.86936889
   0.74999689  0.98034714  0.13062704
   0.74999331  0.51969252  0.63060967
   0.24999584  0.48031620  0.36938741
   0.24999942  0.69421298  0.54446626
   0.75000112  0.19415066  0.95552202
   0.25000070  0.80584757  0.04448650
   0.75000477  0.30578185  0.45552121
   0.25000209  0.17678611  0.21051769
   0.25000363  0.32315434  0.71045650
   0.75000152  0.67683844  0.28954653
   0.75000423  0.82321934  0.78949128
Direct configuration=     3
   0.24999645  0.01964921  0.86938138
   0.74999689  0.98035175  0.13061451
   0.74999330  0.51968788  0.63059717
   0.24999583  0.48032087  0.36939993
   0.24999942  0.69416066  0.54448788
   0.75000112  0.19409851  0.95550041
   0.25000071  0.80589971  0.04450812
   0.75000478  0.30583417  0.45549956
   0.25000210  0.17674440  0.21050107
   0.25000364  0.32319628  0.71043988
   0.75000153  0.67679649  0.28956316
   0.75000425  0.82326108  0.78950792
Direct configuration=     4
   0.25000232  0.01617134  0.86714091
   0.75000255  0.98383521  0.13286342
   0.74999946  0.51619618  0.63283341
   0.25000459  0.48379486  0.36715100
   0.24999704  0.69453461  0.54545886
   0.74999863  0.19449338  0.95453522
   0.24999911  0.80550694  0.04546913
   0.74999936  0.30546381  0.45454265
   0.24999943  0.17373108  0.20992528
   0.24999872  0.32623454  0.70987934
   0.74999882  0.67376963  0.29012190
   0.74999997  0.82626943  0.79007989
Direct configuration=     5
   0.25000018  0.01744116  0.86795894
   0.75000048  0.98256335  0.13204231
   0.74999721  0.51747104  0.63201693
   0.25000139  0.48252646  0.36797211
   0.24999791  0.69439807  0.54510434
   0.74999954  0.19434920  0.95488763
   0.24999969  0.80565034  0.04511825
   0.75000134  0.30559903  0.45489203
   0.25000040  0.17483129  0.21013551
   0.25000052  0.32512523  0.71008400
   0.74999981  0.67487478  0.28991790
   0.75000153  0.82517104  0.78987105
Direct configuration=     6
   0.25000175  0.01522531  0.86816677
   0.75000086  0.98477893  0.13183092
   0.74999981  0.51524600  0.63181006
   0.25000185  0.48474375  0.36817727
   0.24999808  0.69483904  0.54531425
   0.74999956  0.19480011  0.95467954
   0.24999988  0.80520281  0.04532782
   0.74999998  0.30515976  0.45468621
   0.24999996  0.17431115  0.21075240
   0.24999822  0.32566131  0.71071318
   0.75000025  0.67434076  0.28928829
   0.74999980  0.82569205  0.78925431
Direct configuration=     7
   0.25000648  0.00857776  0.86879028
   0.75000199  0.99142568  0.13119676
   0.75000762  0.50857088  0.63118943
   0.25000322  0.49139563  0.36879272
   0.24999858  0.69616196  0.54594397
   0.74999964  0.19615282  0.95405526
   0.25000046  0.80386019  0.04595654
   0.74999589  0.30384196  0.45406874
   0.24999861  0.17275076  0.21260307
   0.24999132  0.32726956  0.71260070
   0.75000156  0.67273871  0.28739946
   0.74999463  0.82725509  0.78740406
Direct configuration=     8
   0.25001594 -0.00471733  0.87003731
   0.75000425  0.00471918  0.12992843
   0.75002323  0.49522063  0.62994818
   0.25000597  0.50469939  0.37002363
   0.24999960  0.69880778  0.54720340
   0.74999980  0.19885824  0.95280671
   0.25000161  0.80117496  0.04721397
   0.74998771  0.30120636  0.45283381
   0.24999593  0.16962996  0.21630442
   0.24997752  0.33048605  0.71637576
   0.75000418  0.66953461  0.28362181
   0.74998428  0.83038117  0.78370357
Direct configuration=     9
   0.25000968  0.00407794  0.86921235
   0.75000275 -0.00407503  0.13076748
   0.75001290  0.50405239  0.63076932
   0.25000415  0.49589839  0.36920933
   0.24999893  0.69705745  0.54637023
   0.74999969  0.19706849  0.95363268
   0.25000085  0.80295135  0.04638212
   0.74999312  0.30294992  0.45365077
   0.24999770  0.17169450  0.21385582
   0.24998665  0.32835820  0.71387840
   0.75000245  0.67165426  0.28612089
   0.74999113  0.82831314  0.78615160
Direct configuration=    10
   0.25001112  0.00206120  0.86940151
   0.75000310 -0.00205854  0.13057509
   0.75001527  0.50202728  0.63058103
   0.25000457  0.49791644  0.36939605
   0.24999908  0.69745880  0.54656128
   0.74999972  0.19747888  0.95344329
   0.25000102  0.80254403  0.04657286
   0.74999188  0.30255013  0.45346344
   0.24999730  0.17122111  0.21441728
   0.24998455  0.32884611  0.71445104
   0.75000284  0.67116822  0.28554786
   0.74998956  0.82878734  0.78559027
Direct configuration=    11
   0.25001099  0.00134656  0.86949203
   0.75000308 -0.00134359  0.13048360
   0.75001520  0.50131125  0.63049066
   0.25000453  0.49863199  0.36948555
   0.24999927  0.69743449  0.54655617
   0.74999983  0.19745747  0.95344869
   0.25000107  0.80256612  0.04656769
   0.74999171  0.30257415  0.45346927
   0.24999729  0.17102244  0.21452979
   0.24998457  0.32904792  0.71456685
   0.75000293  0.67096545  0.28543257
   0.74998951  0.82898674  0.78547814
Direct configuration=    12
   0.25001060 -0.00079737  0.86976357
   0.75000305  0.00080126  0.13020913
   0.75001501  0.49916315  0.63021952
   0.25000444  0.50077864  0.36975406
   0.24999983  0.69736156  0.54654085
   0.75000017  0.19739325  0.95346490
   0.25000122  0.80263238  0.04655217
   0.74999122  0.30264623  0.45348673
   0.24999727  0.17042646  0.21486733
   0.24998462  0.32965335  0.71491429
   0.75000319  0.67035713  0.28508671
   0.74998938  0.82958495  0.78514173
Direct configuration=    13
   0.25000983 -0.00508523  0.87030667
   0.75000297  0.00509096  0.12966018
   0.75001463  0.49486695  0.62967726
   0.25000424  0.50507195  0.37029108
   0.25000095  0.69721570  0.54651022
   0.75000084  0.19726480  0.95349731
   0.25000151  0.80276491  0.04652112
   0.74999023  0.30279039  0.45352167
   0.24999724  0.16923450  0.21554241
   0.24998472  0.33086419  0.71560917
   0.75000372  0.66914049  0.28439499
   0.74998912  0.83078138  0.78446892
Direct configuration=    14
   0.25000829 -0.00567726  0.87040023
   0.75000267  0.00568556  0.12956605
   0.75001246  0.49427745  0.62958387
   0.25000385  0.50566488  0.37038334
   0.25000125  0.69675571  0.54630210
   0.75000105  0.19680736  0.95370510
   0.25000150  0.80322260  0.04631309
   0.74999082  0.30324705  0.45372870
   0.24999760  0.16900980  0.21534384
   0.24998655  0.33108598  0.71541101
   0.75000358  0.66891438  0.28459506
   0.74999037  0.83100750  0.78466861
Direct configuration=    15
   0.25000366 -0.00745334  0.87068091
   0.75000174  0.00746935  0.12928364
   0.75000598  0.49250894  0.62930370
   0.25000269  0.50744368  0.37066009
   0.25000216  0.69537573  0.54567776
   0.75000171  0.19543504  0.95432848
   0.25000147  0.80459564  0.04568899
   0.74999261  0.30461703  0.45434977
   0.24999867  0.16833569  0.21474814
   0.24999204  0.33175133  0.71481654
   0.75000318  0.66823602  0.28519529
   0.74999410  0.83168587  0.78526769
Direct configuration=    16
   0.24999442 -0.01100550  0.87124227
   0.74999988  0.01103694  0.12871882
   0.74999300  0.48897194  0.62874335
   0.25000036  0.51100129  0.37121361
   0.25000397  0.69261577  0.54442908
   0.75000301  0.19269039  0.95557525
   0.25000141  0.80734173  0.04444080
   0.74999617  0.30735699  0.45559191
   0.25000081  0.16698748  0.21355673
   0.25000302  0.33308204  0.71362760
   0.75000237  0.66687931  0.28639574
   0.75000157  0.83304262  0.78646585
Direct configuration=    17
   0.24997593 -0.01810982  0.87236500
   0.74999618  0.01817211  0.12758918
   0.74996705  0.48189792  0.62762266
   0.24999570  0.51811650  0.37232064
   0.25000761  0.68709584  0.54193171
   0.75000562  0.18720109  0.95806877
   0.25000129  0.81283392  0.04194441
   0.75000330  0.31283691  0.45807619
   0.25000509  0.16429106  0.21117392
   0.25002499  0.33574346  0.71124971
   0.75000074  0.66416590  0.28879665
   0.75001651  0.83575611  0.78886216
Direct configuration=    18
   0.24999074 -0.01241892  0.87146564
   0.74999915  0.01245650  0.12849408
   0.74998784  0.48756455  0.62852039
   0.24999943  0.51241687  0.37143386
   0.25000470  0.69151757  0.54393222
   0.75000353  0.19159828  0.95607134
   0.25000138  0.80843442  0.04394414
   0.74999759  0.30844723  0.45608616
   0.25000166  0.16645102  0.21308267
   0.25000739  0.33361153  0.71315451
   0.75000204  0.66633947  0.28687341
   0.75000454  0.83358247  0.78694260
Direct configuration=    19
   0.24998997 -0.01271485  0.87151241
   0.74999899  0.01275372  0.12844702
   0.74998676  0.48726988  0.62847370
   0.24999924  0.51271326  0.37147997
   0.25000485  0.69128763  0.54382819
   0.75000364  0.19136962  0.95617521
   0.25000138  0.80866319  0.04384015
   0.74999789  0.30867550  0.45618964
   0.25000184  0.16633870  0.21298341
   0.25000831  0.33372240  0.71305546
   0.75000198  0.66622645  0.28697342
   0.75000517  0.83369551  0.78704242
Direct configuration=    20
   0.24999407 -0.01324985  0.87165644
   0.74999935  0.01329529  0.12830602
   0.74999465  0.48672503  0.62833339
   0.24999912  0.51324269  0.37162913
   0.25000289  0.69175244  0.54350184
   0.75000219  0.19184502  0.95649986
   0.25000091  0.80819925  0.04351499
   0.74999847  0.30820134  0.45651304
   0.25000123  0.16687699  0.21274661
   0.25000389  0.33318087  0.71281180
   0.75000112  0.66677986  0.28721164
   0.75000211  0.83315207  0.78727623
Direct configuration=    21
   0.25000637 -0.01485484  0.87208854
   0.75000042  0.01492001  0.12788301
   0.75001832  0.48509048  0.62791246
   0.24999877  0.51483098  0.37207659
   0.24999703  0.69314687  0.54252279
   0.74999784  0.19327122  0.95747382
   0.24999950  0.80680740  0.04253952
   0.75000020  0.30677887  0.45748322
   0.24999941  0.16849183  0.21203623
   0.24999065  0.33155630  0.71208083
   0.74999856  0.66844011  0.28792632
   0.74999293  0.83152178  0.78797767
Direct configuration=    22
   0.25000976 -0.01529727  0.87220765
   0.75000071  0.01536788  0.12776641
   0.75002484  0.48463990  0.62779643
   0.24999867  0.51526880  0.37219994
   0.24999542  0.69353126  0.54225291
   0.74999664  0.19366436  0.95774229
   0.24999911  0.80642374  0.04227063
   0.75000068  0.30638675  0.45775066
   0.24999891  0.16893697  0.21184040
   0.24998700  0.33110847  0.71187933
   0.74999785  0.66889777  0.28812332
   0.74999041  0.83107237  0.78817102
Direct configuration=    23
   0.25000308 -0.01611144  0.87218164
   0.75000071  0.01617344  0.12780714
   0.75001185  0.48383599  0.62781960
   0.24999971  0.51608925  0.37216600
   0.24999749  0.69465970  0.54248474
   0.74999710  0.19479466  0.95750274
   0.24999891  0.80530720  0.04249615
   0.75000094  0.30524947  0.45751712
   0.24999906  0.16970779  0.21113963
   0.24999818  0.33031821  0.71117360
   0.74999721  0.66966213  0.28884027
   0.74999576  0.83031460  0.78887238
Direct configuration=    24
   0.24999474 -0.01712740  0.87214918
   0.75000070  0.01717867  0.12785796
   0.74999562  0.48283282  0.62784852
   0.25000102  0.51711305  0.37212365
   0.25000008  0.69606784  0.54277403
   0.74999766  0.19620511  0.95720381
   0.24999866  0.80391393  0.04277757
   0.75000126  0.30383031  0.45722569
   0.24999925  0.17066965  0.21026517
   0.25001214  0.32933209  0.71029295
   0.74999641  0.67061594  0.28973491
   0.75000244  0.82936900  0.78974756
Direct configuration=    25
   0.24999344 -0.01760141  0.87247258
   0.75000012  0.01765308  0.12753106
   0.74999132  0.48235754  0.62752109
   0.25000054  0.51759197  0.37245261
   0.25000122  0.69657837  0.54305246
   0.74999788  0.19670880  0.95692555
   0.24999850  0.80340919  0.04305711
   0.75000118  0.30331490  0.45694516
   0.24999943  0.17136308  0.20987522
   0.25001531  0.32863198  0.70989513
   0.74999687  0.67131049  0.29013302
   0.75000418  0.82868301  0.79014002
Direct configuration=    26
   0.24998954 -0.01902345  0.87344278
   0.74999836  0.01907631  0.12655035
   0.74997842  0.48093170  0.62653879
   0.24999913  0.51902872  0.37343951
   0.25000464  0.69810998  0.54388774
   0.74999852  0.19821987  0.95609078
   0.24999800  0.80189498  0.04389571
   0.75000096  0.30176867  0.45610356
   0.24999996  0.17344336  0.20870537
   0.25002483  0.32653166  0.70870169
   0.74999826  0.67339416  0.29132734
   0.75000938  0.82662504  0.79131740
Direct configuration=    27
   0.24998174 -0.02186753  0.87538318
   0.74999485  0.02192277  0.12458893
   0.74995262  0.47808002  0.62457420
   0.24999630  0.52190221  0.37541331
   0.25001148  0.70117320  0.54555830
   0.74999979  0.20124200  0.95442124
   0.24999700  0.79886657  0.04557290
   0.75000051  0.29867622  0.45442035
   0.25000101  0.17760392  0.20636566
   0.25004388  0.32233101  0.70631479
   0.75000103  0.67756149  0.29371598
   0.75001979  0.82250911  0.79367215
Direct configuration=    28
   0.24998582 -0.02037910  0.87436768
   0.74999669  0.02043309  0.12561543
   0.74996612  0.47957243  0.62560236
   0.24999778  0.52039839  0.37438034
   0.25000790  0.69957008  0.54468402
   0.74999913  0.19966039  0.95529498
   0.24999752  0.80045147  0.04469515
   0.75000075  0.30029464  0.45530125
   0.25000046  0.17542652  0.20759013
   0.25003391  0.32452939  0.70756396
   0.74999958  0.67538054  0.29246590
   0.75001435  0.82466316  0.79243981
Direct configuration=    29
   0.24999888 -0.02133602  0.87452272
   0.74999707  0.02141915  0.12545752
   0.74999239  0.47858195  0.62544317
   0.24999656  0.52134733  0.37453972
   0.25000462  0.69912204  0.54493000
   0.74999850  0.19920219  0.95506385
   0.24999772  0.80090572  0.04493942
   0.75000106  0.30075463  0.45506921
   0.24999912  0.17593249  0.20722007
   0.25000955  0.32402673  0.70719257
   0.75000012  0.67591480  0.29282459
   0.75000440  0.82413000  0.79279815
Direct configuration=    30
   0.25003807 -0.02420679  0.87498783
   0.74999822  0.02437733  0.12498379
   0.75007120  0.47561051  0.62496560
   0.24999291  0.52419416  0.37501789
   0.24999477  0.69777790  0.54566794
   0.74999662  0.19782761  0.95437047
   0.24999831  0.80226844  0.04567222
   0.75000202  0.30213461  0.45437310
   0.24999511  0.17745041  0.20610989
   0.24993646  0.32251874  0.70607842
   0.75000176  0.67751755  0.29390067
   0.74997456  0.82253054  0.79387318
Direct configuration=    31
   0.25002033 -0.02553388  0.87505266
   0.74999942  0.02566555  0.12492083
   0.75003930  0.47432792  0.62490154
   0.24999947  0.52552339  0.37507282
   0.24999795  0.69748726  0.54585144
   0.74999994  0.19754776  0.95417219
   0.24999831  0.80256159  0.04585182
   0.75000025  0.30241517  0.45417549
   0.24999499  0.17861456  0.20606248
   0.24996382  0.32135625  0.70603466
   0.74999824  0.67863118  0.29396724
   0.74998799  0.82140425  0.79393784
Direct configuration=    32
   0.24996709 -0.02951513  0.87524712
   0.75000302  0.02953021  0.12473194
   0.74994360  0.47048018  0.62470935
   0.25001916  0.52951106  0.37523761
   0.25000749  0.69661533  0.54640192
   0.75000988  0.19670822  0.95357736
   0.24999832  0.80344104  0.04639060
   0.74999494  0.30325688  0.45358265
   0.24999463  0.18210703  0.20592028
   0.25004591  0.31786877  0.70590337
   0.74998768  0.68197206  0.29416697
   0.75002828  0.81802536  0.79413182
Direct configuration=    33
   0.24986063 -0.03747763  0.87563606
   0.75001023  0.03725952  0.12435417
   0.74975220  0.46278468  0.62432496
   0.25005854  0.53748640  0.37556720
   0.25002658  0.69487149  0.54750287
   0.75002978  0.19502913  0.95238770
   0.24999833  0.80519993  0.04746817
   0.74998432  0.30494029  0.45239699
   0.24999391  0.18909195  0.20563587
   0.25021008  0.31089380  0.70564080
   0.74996655  0.68865382  0.29456642
   0.75010886  0.81126760  0.79451979
Direct configuration=    34
   0.24988213 -0.03855836  0.87549964
   0.75000643  0.03840542  0.12447620
   0.74978775  0.46164074  0.62445336
   0.25004706  0.53856040  0.37545477
   0.25002265  0.69458678  0.54778978
   0.75002812  0.19474826  0.95211732
   0.24999938  0.80547275  0.04776775
   0.74998619  0.30521998  0.45212397
   0.24999631  0.19017250  0.20545588
   0.25017776  0.30981872  0.70546054
   0.74997580  0.68979516  0.29471668
   0.75009042  0.81013865  0.79468511
Direct configuration=    35
   0.24994665 -0.04180054  0.87509037
   0.74999503  0.04184310  0.12484231
   0.74989439  0.45820893  0.62483855
   0.25001265  0.54178240  0.37511747
   0.25001086  0.69373265  0.54865051
   0.75002313  0.19390566  0.95130620
   0.25000253  0.80629122  0.04866646
   0.74999180  0.30605902  0.45130492
   0.25000352  0.19341415  0.20491591
   0.25008078  0.30659345  0.70491978
   0.75000354  0.69321917  0.29516744
   0.75003511  0.80675180  0.79518109
Direct configuration=    36
   0.25007569 -0.04828491  0.87427183
   0.74997223  0.04871846  0.12557452
   0.75010768  0.45134530  0.62560893
   0.24994382  0.54822640  0.37444289
   0.24998728  0.69202440  0.55037197
   0.75001316  0.19222044  0.94968395
   0.25000883  0.80792815  0.05046390
   0.75000302  0.30773711  0.44966681
   0.25001794  0.19989744  0.20383595
   0.24988683  0.30014291  0.70383824
   0.75005902  0.70006720  0.29606897
   0.74992449  0.79997810  0.79617304
Direct configuration=    37
   0.24997846 -0.04339894  0.87488860
   0.74998941  0.04353788  0.12502280
   0.74994697  0.45651705  0.62502845
   0.24999568  0.54337085  0.37495119
   0.25000505  0.69331157  0.54907485
   0.75002067  0.19349025  0.95090631
   0.25000408  0.80669472  0.04910953
   0.74999457  0.30647267  0.45090112
   0.25000707  0.19501228  0.20464970
   0.25003297  0.30500339  0.70465318
   0.75001722  0.69490721  0.29538967
   0.75000784  0.80508208  0.79542560
Direct configuration=    38
   0.25002713 -0.04486220  0.87492175
   0.74998749  0.04511714  0.12499793
   0.75003401  0.45492987  0.62500819
   0.24997905  0.54482653  0.37498025
   0.24999538  0.69248113  0.54963486
   0.75001406  0.19266981  0.95038432
   0.25000551  0.80752173  0.04967093
   0.74999884  0.30730002  0.45038511
   0.25000743  0.19733832  0.20427137
   0.24995454  0.30268913  0.70427527
   0.75002800  0.69734310  0.29571472
   0.74996856  0.80264641  0.79575630
Direct configuration=    39
   0.25017315 -0.04925200  0.87502118
   0.74998174  0.04985494  0.12492331
   0.75029514  0.45016836  0.62494744
   0.24992914  0.54919358  0.37506744
   0.24996640  0.68998982  0.55131488
   0.74999421  0.19020850  0.94881835
   0.25000977  0.81000278  0.05135512
   0.75001165  0.30978206  0.44883707
   0.25000848  0.20431644  0.20313641
   0.24971926  0.29574636  0.70314154
   0.75006034  0.70465078  0.29668988
   0.74985072  0.79533939  0.79674839
Direct configuration=    40
   0.25046519 -0.05803159  0.87522006
   0.74997023  0.05933054  0.12477408
   0.75081741  0.44064533  0.62482593
   0.24982932  0.55792768  0.37524181
   0.24990842  0.68500720  0.55467491
   0.74995452  0.18528586  0.94568641
   0.25001829  0.81496486  0.05472351
   0.75003728  0.31474614  0.44574099
   0.25001059  0.21827269  0.20086647
   0.24924868  0.28186081  0.70087408
   0.75012503  0.71926613  0.29864019
   0.74961504  0.78072534  0.79873257
Direct configuration=    41
   0.25007128 -0.06174135  0.87612670
   0.75001572  0.06196387  0.12389383
   0.75009001  0.43805589  0.62390670
   0.24999603  0.56168482  0.37606407
   0.24996507  0.68231482  0.55526430
   0.74998269  0.18264276  0.94475301
   0.25001487  0.81768375  0.05528599
   0.75001717  0.31740191  0.44481400
   0.24999059  0.22454131  0.19999540
   0.24990688  0.27553855  0.70004104
   0.74999289  0.72445819  0.29990266
   0.74995679  0.77545650  0.79995328
Direct configuration=    42
   0.25011345 -0.06134414  0.87602963
   0.75001085  0.06168191  0.12398808
   0.75016790  0.43833314  0.62400512
   0.24997818  0.56128253  0.37597603
   0.24995901  0.68260309  0.55520120
   0.74997968  0.18292576  0.94485295
   0.25001523  0.81739263  0.05522577
   0.75001933  0.31711755  0.44491325
   0.24999273  0.22387011  0.20008867
   0.24983641  0.27621548  0.70013023
   0.75000704  0.72390226  0.29976749
   0.74992020  0.77602065  0.79982257
Direct configuration=    43
   0.24995321 -0.06211056  0.87599904
   0.75001429  0.06210824  0.12397372
   0.74990349  0.43793578  0.62399886
   0.25002640  0.56206342  0.37597459
   0.24998870  0.68219831  0.55501992
   0.74999812  0.18248488  0.94491522
   0.25001155  0.81779351  0.05505924
   0.75000734  0.31753771  0.44494492
   0.25000034  0.22422612  0.19960100
   0.25006867  0.27583569  0.69964423
   0.74997945  0.72389351  0.30040747
   0.75004843  0.77603439  0.80046279
Direct configuration=    44
   0.24990904 -0.06232180  0.87599061
   0.75001524  0.06222574  0.12396976
   0.74983061  0.43782627  0.62399713
   0.25003969  0.56227864  0.37597420
   0.24999688  0.68208675  0.55496996
   0.75000321  0.18236336  0.94493239
   0.25001054  0.81790399  0.05501335
   0.75000404  0.31765351  0.44495364
   0.25000243  0.22432424  0.19946659
   0.25013269  0.27573101  0.69951028
   0.74997185  0.72389110  0.30058385
   0.75008377  0.77603818  0.80063925
Direct configuration=    45
   0.24989427 -0.06239246  0.87598779
   0.75001556  0.06226505  0.12396844
   0.74980624  0.43778963  0.62399656
   0.25004414  0.56235064  0.37597406
   0.24999962  0.68204943  0.55495325
   0.75000491  0.18232271  0.94493813
   0.25001020  0.81794095  0.05499799
   0.75000293  0.31769225  0.44495656
   0.25000313  0.22435706  0.19942163
   0.25015410  0.27569599  0.69946547
   0.74996931  0.72389029  0.30064286
   0.75009559  0.77603945  0.80069827
Direct configuration=    46
   0.24999407 -0.06250999  0.87620780
   0.74999786  0.06262792  0.12374948
   0.74996759  0.43742499  0.62376686
   0.24999187  0.56247332  0.37618385
   0.24998774  0.68221570  0.55486991
   0.74999684  0.18244050  0.94509814
   0.25000281  0.81778325  0.05489726
   0.74999643  0.31756698  0.44511343
   0.25000731  0.22438504  0.19916023
   0.25003764  0.27566164  0.69920059
   0.74999806  0.72411449  0.30085481
   0.75002177  0.77581716  0.80089863
Direct configuration=    47
   0.25006066 -0.06258841  0.87635459
   0.74998605  0.06287003  0.12360339
   0.75007524  0.43718171  0.62361361
   0.24995700  0.56255517  0.37632382
   0.24997981  0.68232663  0.55481431
   0.74999145  0.18251908  0.94520491
   0.24999788  0.81767803  0.05483006
   0.74999209  0.31748341  0.44521810
   0.25001009  0.22440371  0.19898582
   0.24995995  0.27563872  0.69902386
   0.75001725  0.72426407  0.30099623
   0.74997252  0.77566885  0.80103231
Direct configuration=    48
   0.25008116 -0.06285440  0.87645585
   0.74999268  0.06322985  0.12350868
   0.75012412  0.43680932  0.62351138
   0.24995538  0.56281963  0.37643882
   0.24998350  0.68286842  0.55486368
   0.74999405  0.18307233  0.94517968
   0.24999228  0.81713723  0.05487307
   0.74998548  0.31692220  0.44518996
   0.25000065  0.22442883  0.19874539
   0.24992346  0.27561145  0.69877241
   0.75001017  0.72439772  0.30121531
   0.74995706  0.77555842  0.80124676
Direct configuration=    49
   0.25011372 -0.06327696  0.87661672
   0.75000321  0.06380148  0.12335821
   0.75020177  0.43621773  0.62334899
   0.24995281  0.56323977  0.37662153
   0.24998937  0.68372913  0.55494210
   0.74999818  0.18395123  0.94513960
   0.24998338  0.81627808  0.05494140
   0.74997498  0.31603064  0.44514526
   0.24998566  0.22446873  0.19836345
   0.24986550  0.27556814  0.69837294
   0.74999893  0.72461004  0.30156335
   0.74993250  0.77538299  0.80158744
Direct configuration=    50
   0.24997056 -0.06365204  0.87685075
   0.74999523  0.06376367  0.12312396
   0.74996464  0.43625140  0.62311948
   0.25000650  0.56363225  0.37685235
   0.25001490  0.68417551  0.55505059
   0.75001251  0.18446186  0.94490365
   0.24998658  0.81583722  0.05505259
   0.74997280  0.31551640  0.44490218
   0.24999020  0.22476496  0.19834558
   0.25007676  0.27525631  0.69834555
   0.74996091  0.72454987  0.30172449
   0.75004841  0.77544360  0.80172983
Direct configuration=    51
   0.24997744 -0.06363401  0.87683950
   0.74999561  0.06376549  0.12313522
   0.74997604  0.43624978  0.62313052
   0.25000392  0.56361338  0.37684125
   0.25001367  0.68415405  0.55504537
   0.75001182  0.18443731  0.94491499
   0.24998643  0.81585841  0.05504724
   0.74997291  0.31554112  0.44491386
   0.24998999  0.22475072  0.19834644
   0.25006660  0.27527130  0.69834686
   0.74996274  0.72455277  0.30171674
   0.75004284  0.77544069  0.80172298
Direct configuration=    52
   0.24999148 -0.06368303  0.87686983
   0.74998751  0.06382362  0.12308829
   0.75000182  0.43619566  0.62307486
   0.24998391  0.56366603  0.37686771
   0.25001245  0.68415372  0.55518806
   0.75000974  0.18442738  0.94479955
   0.24999218  0.81586142  0.05519702
   0.74998308  0.31555533  0.44480297
   0.24999419  0.22467217  0.19829333
   0.25003956  0.27533216  0.69829684
   0.74998510  0.72450157  0.30176039
   0.75001899  0.77549497  0.80176215
