  12  12   0   0
  0.9939482E+01  0.2854347E-09  0.4544929E-09  0.9194140E-09  0.5000000E-15
  1.000000000000000E-004
  CAR 
 unknown system                          
     10.44378745    -51.59537739  301      3.67117863      1.00000000
    -51.595  0.0000E+00  0.0000E+00  0.0000E+00  0.0000E+00
    -51.389  0.0000E+00  0.0000E+00  0.0000E+00  0.0000E+00
    -51.182  0.0000E+00  0.0000E+00  0.0000E+00  0.0000E+00
    -50.975  0.0000E+00  0.0000E+00  0.0000E+00  0.0000E+00
    -50.768  0.0000E+00  0.0000E+00  0.0000E+00  0.0000E+00
    -50.561  0.0000E+00  0.0000E+00  0.0000E+00  0.0000E+00
    -50.355  0.0000E+00  0.0000E+00  0.0000E+00  0.0000E+00
    -50.148  0.0000E+00  0.0000E+00  0.0000E+00  0.0000E+00
    -49.941  0.0000E+00  0.0000E+00  0.0000E+00  0.0000E+00
    -49.734  0.0000E+00  0.0000E+00  0.0000E+00  0.0000E+00
    -49.527  0.0000E+00  0.0000E+00  0.0000E+00  0.0000E+00
    -49.321  0.0000E+00  0.0000E+00  0.0000E+00  0.0000E+00
    -49.114  0.0000E+00  0.0000E+00  0.0000E+00  0.0000E+00
    -48.907  0.0000E+00  0.0000E+00  0.0000E+00  0.0000E+00
    -48.700  0.6052E+01  0.6052E+01  0.1252E+01  0.1252E+01
    -48.493  0.0000E+00  0.0000E+00  0.6000E+01  0.6000E+01
    -48.287  0.0000E+00  0.0000E+00  0.6000E+01  0.6000E+01
    -48.080  0.0000E+00  0.0000E+00  0.6000E+01  0.6000E+01
    -47.873  0.0000E+00  0.0000E+00  0.6000E+01  0.6000E+01
    -47.666  0.0000E+00  0.0000E+00  0.6000E+01  0.6000E+01
    -47.459  0.0000E+00  0.0000E+00  0.6000E+01  0.6000E+01
    -47.253  0.0000E+00  0.0000E+00  0.6000E+01  0.6000E+01
    -47.046  0.0000E+00  0.0000E+00  0.6000E+01  0.6000E+01
    -46.839  0.0000E+00  0.0000E+00  0.6000E+01  0.6000E+01
    -46.632  0.0000E+00  0.0000E+00  0.6000E+01  0.6000E+01
    -46.425  0.0000E+00  0.0000E+00  0.6000E+01  0.6000E+01
    -46.219  0.0000E+00  0.0000E+00  0.6000E+01  0.6000E+01
    -46.012  0.0000E+00  0.0000E+00  0.6000E+01  0.6000E+01
    -45.805  0.0000E+00  0.0000E+00  0.6000E+01  0.6000E+01
    -45.598  0.0000E+00  0.0000E+00  0.6000E+01  0.6000E+01
    -45.391  0.0000E+00  0.0000E+00  0.6000E+01  0.6000E+01
    -45.185  0.0000E+00  0.0000E+00  0.6000E+01  0.6000E+01
    -44.978  0.0000E+00  0.0000E+00  0.6000E+01  0.6000E+01
    -44.771  0.5545E+01  0.5545E+01  0.7874E+01  0.7874E+01
    -44.564  0.9671E+01  0.9671E+01  0.1200E+02  0.1200E+02
    -44.357  0.0000E+00  0.0000E+00  0.1200E+02  0.1200E+02
    -44.151  0.0000E+00  0.0000E+00  0.1200E+02  0.1200E+02
    -43.944  0.0000E+00  0.0000E+00  0.1200E+02  0.1200E+02
    -43.737  0.0000E+00  0.0000E+00  0.1200E+02  0.1200E+02
    -43.530  0.0000E+00  0.0000E+00  0.1200E+02  0.1200E+02
    -43.323  0.0000E+00  0.0000E+00  0.1200E+02  0.1200E+02
    -43.117  0.0000E+00  0.0000E+00  0.1200E+02  0.1200E+02
    -42.910  0.0000E+00  0.0000E+00  0.1200E+02  0.1200E+02
    -42.703  0.0000E+00  0.0000E+00  0.1200E+02  0.1200E+02
    -42.496  0.0000E+00  0.0000E+00  0.1200E+02  0.1200E+02
    -42.290  0.0000E+00  0.0000E+00  0.1200E+02  0.1200E+02
    -42.083  0.0000E+00  0.0000E+00  0.1200E+02  0.1200E+02
    -41.876  0.0000E+00  0.0000E+00  0.1200E+02  0.1200E+02
    -41.669  0.0000E+00  0.0000E+00  0.1200E+02  0.1200E+02
    -41.462  0.0000E+00  0.0000E+00  0.1200E+02  0.1200E+02
    -41.256  0.0000E+00  0.0000E+00  0.1200E+02  0.1200E+02
    -41.049  0.0000E+00  0.0000E+00  0.1200E+02  0.1200E+02
    -40.842  0.0000E+00  0.0000E+00  0.1200E+02  0.1200E+02
    -40.635  0.0000E+00  0.0000E+00  0.1200E+02  0.1200E+02
    -40.428  0.0000E+00  0.0000E+00  0.1200E+02  0.1200E+02
    -40.222  0.0000E+00  0.0000E+00  0.1200E+02  0.1200E+02
    -40.015  0.0000E+00  0.0000E+00  0.1200E+02  0.1200E+02
    -39.808  0.0000E+00  0.0000E+00  0.1200E+02  0.1200E+02
    -39.601  0.0000E+00  0.0000E+00  0.1200E+02  0.1200E+02
    -39.394  0.0000E+00  0.0000E+00  0.1200E+02  0.1200E+02
    -39.188  0.0000E+00  0.0000E+00  0.1200E+02  0.1200E+02
    -38.981  0.0000E+00  0.0000E+00  0.1200E+02  0.1200E+02
    -38.774  0.0000E+00  0.0000E+00  0.1200E+02  0.1200E+02
    -38.567  0.0000E+00  0.0000E+00  0.1200E+02  0.1200E+02
    -38.360  0.0000E+00  0.0000E+00  0.1200E+02  0.1200E+02
    -38.154  0.0000E+00  0.0000E+00  0.1200E+02  0.1200E+02
    -37.947  0.0000E+00  0.0000E+00  0.1200E+02  0.1200E+02
    -37.740  0.0000E+00  0.0000E+00  0.1200E+02  0.1200E+02
    -37.533  0.0000E+00  0.0000E+00  0.1200E+02  0.1200E+02
    -37.326  0.0000E+00  0.0000E+00  0.1200E+02  0.1200E+02
    -37.120  0.0000E+00  0.0000E+00  0.1200E+02  0.1200E+02
    -36.913  0.0000E+00  0.0000E+00  0.1200E+02  0.1200E+02
    -36.706  0.0000E+00  0.0000E+00  0.1200E+02  0.1200E+02
    -36.499  0.0000E+00  0.0000E+00  0.1200E+02  0.1200E+02
    -36.292  0.0000E+00  0.0000E+00  0.1200E+02  0.1200E+02
    -36.086  0.0000E+00  0.0000E+00  0.1200E+02  0.1200E+02
    -35.879  0.0000E+00  0.0000E+00  0.1200E+02  0.1200E+02
    -35.672  0.0000E+00  0.0000E+00  0.1200E+02  0.1200E+02
    -35.465  0.0000E+00  0.0000E+00  0.1200E+02  0.1200E+02
    -35.258  0.0000E+00  0.0000E+00  0.1200E+02  0.1200E+02
    -35.052  0.0000E+00  0.0000E+00  0.1200E+02  0.1200E+02
    -34.845  0.0000E+00  0.0000E+00  0.1200E+02  0.1200E+02
    -34.638  0.0000E+00  0.0000E+00  0.1200E+02  0.1200E+02
    -34.431  0.0000E+00  0.0000E+00  0.1200E+02  0.1200E+02
    -34.224  0.0000E+00  0.0000E+00  0.1200E+02  0.1200E+02
    -34.018  0.0000E+00  0.0000E+00  0.1200E+02  0.1200E+02
    -33.811  0.0000E+00  0.0000E+00  0.1200E+02  0.1200E+02
    -33.604  0.0000E+00  0.0000E+00  0.1200E+02  0.1200E+02
    -33.397  0.0000E+00  0.0000E+00  0.1200E+02  0.1200E+02
    -33.190  0.0000E+00  0.0000E+00  0.1200E+02  0.1200E+02
    -32.984  0.0000E+00  0.0000E+00  0.1200E+02  0.1200E+02
    -32.777  0.0000E+00  0.0000E+00  0.1200E+02  0.1200E+02
    -32.570  0.0000E+00  0.0000E+00  0.1200E+02  0.1200E+02
    -32.363  0.0000E+00  0.0000E+00  0.1200E+02  0.1200E+02
    -32.156  0.0000E+00  0.0000E+00  0.1200E+02  0.1200E+02
    -31.950  0.0000E+00  0.0000E+00  0.1200E+02  0.1200E+02
    -31.743  0.0000E+00  0.0000E+00  0.1200E+02  0.1200E+02
    -31.536  0.0000E+00  0.0000E+00  0.1200E+02  0.1200E+02
    -31.329  0.0000E+00  0.0000E+00  0.1200E+02  0.1200E+02
    -31.122  0.0000E+00  0.0000E+00  0.1200E+02  0.1200E+02
    -30.916  0.0000E+00  0.0000E+00  0.1200E+02  0.1200E+02
    -30.709  0.0000E+00  0.0000E+00  0.1200E+02  0.1200E+02
    -30.502  0.0000E+00  0.0000E+00  0.1200E+02  0.1200E+02
    -30.295  0.0000E+00  0.0000E+00  0.1200E+02  0.1200E+02
    -30.088  0.0000E+00  0.0000E+00  0.1200E+02  0.1200E+02
    -29.882  0.0000E+00  0.0000E+00  0.1200E+02  0.1200E+02
    -29.675  0.0000E+00  0.0000E+00  0.1200E+02  0.1200E+02
    -29.468  0.0000E+00  0.0000E+00  0.1200E+02  0.1200E+02
    -29.261  0.0000E+00  0.0000E+00  0.1200E+02  0.1200E+02
    -29.054  0.0000E+00  0.0000E+00  0.1200E+02  0.1200E+02
    -28.848  0.0000E+00  0.0000E+00  0.1200E+02  0.1200E+02
    -28.641  0.0000E+00  0.0000E+00  0.1200E+02  0.1200E+02
    -28.434  0.0000E+00  0.0000E+00  0.1200E+02  0.1200E+02
    -28.227  0.0000E+00  0.0000E+00  0.1200E+02  0.1200E+02
    -28.020  0.0000E+00  0.0000E+00  0.1200E+02  0.1200E+02
    -27.814  0.0000E+00  0.0000E+00  0.1200E+02  0.1200E+02
    -27.607  0.0000E+00  0.0000E+00  0.1200E+02  0.1200E+02
    -27.400  0.0000E+00  0.0000E+00  0.1200E+02  0.1200E+02
    -27.193  0.0000E+00  0.0000E+00  0.1200E+02  0.1200E+02
    -26.987  0.0000E+00  0.0000E+00  0.1200E+02  0.1200E+02
    -26.780  0.0000E+00  0.0000E+00  0.1200E+02  0.1200E+02
    -26.573  0.0000E+00  0.0000E+00  0.1200E+02  0.1200E+02
    -26.366  0.0000E+00  0.0000E+00  0.1200E+02  0.1200E+02
    -26.159  0.0000E+00  0.0000E+00  0.1200E+02  0.1200E+02
    -25.953  0.0000E+00  0.0000E+00  0.1200E+02  0.1200E+02
    -25.746  0.0000E+00  0.0000E+00  0.1200E+02  0.1200E+02
    -25.539  0.0000E+00  0.0000E+00  0.1200E+02  0.1200E+02
    -25.332  0.0000E+00  0.0000E+00  0.1200E+02  0.1200E+02
    -25.125  0.0000E+00  0.0000E+00  0.1200E+02  0.1200E+02
    -24.919  0.0000E+00  0.0000E+00  0.1200E+02  0.1200E+02
    -24.712  0.0000E+00  0.0000E+00  0.1200E+02  0.1200E+02
    -24.505  0.0000E+00  0.0000E+00  0.1200E+02  0.1200E+02
    -24.298  0.0000E+00  0.0000E+00  0.1200E+02  0.1200E+02
    -24.091  0.0000E+00  0.0000E+00  0.1200E+02  0.1200E+02
    -23.885  0.0000E+00  0.0000E+00  0.1200E+02  0.1200E+02
    -23.678  0.0000E+00  0.0000E+00  0.1200E+02  0.1200E+02
    -23.471  0.0000E+00  0.0000E+00  0.1200E+02  0.1200E+02
    -23.264  0.0000E+00  0.0000E+00  0.1200E+02  0.1200E+02
    -23.057  0.0000E+00  0.0000E+00  0.1200E+02  0.1200E+02
    -22.851  0.0000E+00  0.0000E+00  0.1200E+02  0.1200E+02
    -22.644  0.0000E+00  0.0000E+00  0.1200E+02  0.1200E+02
    -22.437  0.0000E+00  0.0000E+00  0.1200E+02  0.1200E+02
    -22.230  0.0000E+00  0.0000E+00  0.1200E+02  0.1200E+02
    -22.023  0.0000E+00  0.0000E+00  0.1200E+02  0.1200E+02
    -21.817  0.0000E+00  0.0000E+00  0.1200E+02  0.1200E+02
    -21.610  0.0000E+00  0.0000E+00  0.1200E+02  0.1200E+02
    -21.403  0.0000E+00  0.0000E+00  0.1200E+02  0.1200E+02
    -21.196  0.0000E+00  0.0000E+00  0.1200E+02  0.1200E+02
    -20.989  0.0000E+00  0.0000E+00  0.1200E+02  0.1200E+02
    -20.783  0.0000E+00  0.0000E+00  0.1200E+02  0.1200E+02
    -20.576  0.0000E+00  0.0000E+00  0.1200E+02  0.1200E+02
    -20.369  0.0000E+00  0.0000E+00  0.1200E+02  0.1200E+02
    -20.162  0.0000E+00  0.0000E+00  0.1200E+02  0.1200E+02
    -19.955  0.0000E+00  0.0000E+00  0.1200E+02  0.1200E+02
    -19.749  0.0000E+00  0.0000E+00  0.1200E+02  0.1200E+02
    -19.542  0.0000E+00  0.0000E+00  0.1200E+02  0.1200E+02
    -19.335  0.0000E+00  0.0000E+00  0.1200E+02  0.1200E+02
    -19.128  0.0000E+00  0.0000E+00  0.1200E+02  0.1200E+02
    -18.921  0.0000E+00  0.0000E+00  0.1200E+02  0.1200E+02
    -18.715  0.0000E+00  0.0000E+00  0.1200E+02  0.1200E+02
    -18.508  0.0000E+00  0.0000E+00  0.1200E+02  0.1200E+02
    -18.301  0.0000E+00  0.0000E+00  0.1200E+02  0.1200E+02
    -18.094  0.0000E+00  0.0000E+00  0.1200E+02  0.1200E+02
    -17.887  0.0000E+00  0.0000E+00  0.1200E+02  0.1200E+02
    -17.681  0.0000E+00  0.0000E+00  0.1200E+02  0.1200E+02
    -17.474  0.0000E+00  0.0000E+00  0.1200E+02  0.1200E+02
    -17.267  0.0000E+00  0.0000E+00  0.1200E+02  0.1200E+02
    -17.060  0.0000E+00  0.0000E+00  0.1200E+02  0.1200E+02
    -16.853  0.0000E+00  0.0000E+00  0.1200E+02  0.1200E+02
    -16.647  0.1822E+00  0.1822E+00  0.1204E+02  0.1204E+02
    -16.440  0.3965E+00  0.3965E+00  0.1221E+02  0.1221E+02
    -16.233  0.8003E+00  0.8003E+00  0.1255E+02  0.1255E+02
    -16.026  0.7241E+00  0.7241E+00  0.1287E+02  0.1287E+02
    -15.819  0.4400E+00  0.4401E+00  0.1312E+02  0.1312E+02
    -15.613  0.5736E+00  0.5736E+00  0.1343E+02  0.1343E+02
    -15.406  0.1187E+01  0.1187E+01  0.1394E+02  0.1394E+02
    -15.199  0.1961E+01  0.1961E+01  0.1477E+02  0.1477E+02
    -14.992  0.2669E+01  0.2669E+01  0.1570E+02  0.1570E+02
    -14.785  0.7245E+01  0.7245E+01  0.1825E+02  0.1825E+02
    -14.579  0.1200E+01  0.1200E+01  0.1997E+02  0.1997E+02
    -14.372  0.0000E+00  0.0000E+00  0.2000E+02  0.2000E+02
    -14.165  0.0000E+00  0.0000E+00  0.2000E+02  0.2000E+02
    -13.958  0.0000E+00  0.0000E+00  0.2000E+02  0.2000E+02
    -13.751  0.0000E+00  0.0000E+00  0.2000E+02  0.2000E+02
    -13.545  0.0000E+00  0.0000E+00  0.2000E+02  0.2000E+02
    -13.338  0.0000E+00  0.0000E+00  0.2000E+02  0.2000E+02
    -13.131  0.0000E+00  0.0000E+00  0.2000E+02  0.2000E+02
    -12.924  0.0000E+00  0.0000E+00  0.2000E+02  0.2000E+02
    -12.718  0.0000E+00  0.0000E+00  0.2000E+02  0.2000E+02
    -12.511  0.0000E+00  0.0000E+00  0.2000E+02  0.2000E+02
    -12.304  0.0000E+00  0.0000E+00  0.2000E+02  0.2000E+02
    -12.097  0.0000E+00  0.0000E+00  0.2000E+02  0.2000E+02
    -11.890  0.0000E+00  0.0000E+00  0.2000E+02  0.2000E+02
    -11.684  0.0000E+00  0.0000E+00  0.2000E+02  0.2000E+02
    -11.477  0.0000E+00  0.0000E+00  0.2000E+02  0.2000E+02
    -11.270  0.0000E+00  0.0000E+00  0.2000E+02  0.2000E+02
    -11.063  0.0000E+00  0.0000E+00  0.2000E+02  0.2000E+02
    -10.856  0.0000E+00  0.0000E+00  0.2000E+02  0.2000E+02
    -10.650  0.0000E+00  0.0000E+00  0.2000E+02  0.2000E+02
    -10.443  0.0000E+00  0.0000E+00  0.2000E+02  0.2000E+02
    -10.236  0.0000E+00  0.0000E+00  0.2000E+02  0.2000E+02
    -10.029  0.0000E+00  0.0000E+00  0.2000E+02  0.2000E+02
     -9.822  0.0000E+00  0.0000E+00  0.2000E+02  0.2000E+02
     -9.616  0.0000E+00  0.0000E+00  0.2000E+02  0.2000E+02
     -9.409  0.0000E+00  0.0000E+00  0.2000E+02  0.2000E+02
     -9.202  0.0000E+00  0.0000E+00  0.2000E+02  0.2000E+02
     -8.995  0.0000E+00  0.0000E+00  0.2000E+02  0.2000E+02
     -8.788  0.0000E+00  0.0000E+00  0.2000E+02  0.2000E+02
     -8.582  0.0000E+00  0.0000E+00  0.2000E+02  0.2000E+02
     -8.375  0.0000E+00  0.0000E+00  0.2000E+02  0.2000E+02
     -8.168  0.0000E+00  0.0000E+00  0.2000E+02  0.2000E+02
     -7.961  0.0000E+00  0.0000E+00  0.2000E+02  0.2000E+02
     -7.754  0.0000E+00  0.0000E+00  0.2000E+02  0.2000E+02
     -7.548  0.0000E+00  0.0000E+00  0.2000E+02  0.2000E+02
     -7.341  0.0000E+00  0.0000E+00  0.2000E+02  0.2000E+02
     -7.134  0.0000E+00  0.0000E+00  0.2000E+02  0.2000E+02
     -6.927  0.0000E+00  0.0000E+00  0.2000E+02  0.2000E+02
     -6.720  0.0000E+00  0.0000E+00  0.2000E+02  0.2000E+02
     -6.514  0.0000E+00  0.0000E+00  0.2000E+02  0.2000E+02
     -6.307  0.0000E+00  0.0000E+00  0.2000E+02  0.2000E+02
     -6.100  0.0000E+00  0.0000E+00  0.2000E+02  0.2000E+02
     -5.893  0.0000E+00  0.0000E+00  0.2000E+02  0.2000E+02
     -5.686  0.0000E+00  0.0000E+00  0.2000E+02  0.2000E+02
     -5.480  0.0000E+00  0.0000E+00  0.2000E+02  0.2000E+02
     -5.273  0.0000E+00  0.0000E+00  0.2000E+02  0.2000E+02
     -5.066  0.0000E+00  0.0000E+00  0.2000E+02  0.2000E+02
     -4.859  0.0000E+00  0.0000E+00  0.2000E+02  0.2000E+02
     -4.652  0.0000E+00  0.0000E+00  0.2000E+02  0.2000E+02
     -4.446  0.0000E+00  0.0000E+00  0.2000E+02  0.2000E+02
     -4.239  0.0000E+00  0.0000E+00  0.2000E+02  0.2000E+02
     -4.032  0.0000E+00  0.0000E+00  0.2000E+02  0.2000E+02
     -3.825  0.0000E+00  0.0000E+00  0.2000E+02  0.2000E+02
     -3.618  0.0000E+00  0.0000E+00  0.2000E+02  0.2000E+02
     -3.412  0.2068E-01  0.2068E-01  0.2000E+02  0.2000E+02
     -3.205  0.2686E+00  0.2686E+00  0.2011E+02  0.2011E+02
     -2.998  0.5417E+00  0.5417E+00  0.2036E+02  0.2036E+02
     -2.791  0.9365E+00  0.9365E+00  0.2086E+02  0.2086E+02
     -2.584  0.1049E+01  0.1049E+01  0.2148E+02  0.2148E+02
     -2.378  0.1293E+01  0.1293E+01  0.2251E+02  0.2251E+02
     -2.171  0.2020E+01  0.2020E+01  0.2356E+02  0.2356E+02
     -1.964  0.2357E+01  0.2357E+01  0.2482E+02  0.2482E+02
     -1.757  0.3541E+01  0.3541E+01  0.2641E+02  0.2641E+02
     -1.550  0.2335E+01  0.2335E+01  0.2786E+02  0.2786E+02
     -1.344  0.1079E+01  0.1079E+01  0.2826E+02  0.2826E+02
     -1.137  0.2433E+01  0.2433E+01  0.2929E+02  0.2929E+02
     -0.930  0.1510E+01  0.1510E+01  0.3010E+02  0.3010E+02
     -0.723  0.1967E+01  0.1967E+01  0.3083E+02  0.3083E+02
     -0.516  0.1394E+01  0.1394E+01  0.3164E+02  0.3164E+02
     -0.310  0.1522E+01  0.1522E+01  0.3237E+02  0.3237E+02
     -0.103  0.1874E+01  0.1874E+01  0.3312E+02  0.3312E+02
      0.104  0.2871E+01  0.2871E+01  0.3421E+02  0.3421E+02
      0.311  0.1501E+01  0.1501E+01  0.3513E+02  0.3513E+02
      0.518  0.1434E+01  0.1434E+01  0.3612E+02  0.3612E+02
      0.724  0.2245E+01  0.2245E+01  0.3732E+02  0.3732E+02
      0.931  0.2194E+01  0.2194E+01  0.3850E+02  0.3850E+02
      1.138  0.1785E+01  0.1785E+01  0.3938E+02  0.3938E+02
      1.345  0.8694E+00  0.8694E+00  0.4001E+02  0.4001E+02
      1.552  0.3005E+01  0.3005E+01  0.4127E+02  0.4127E+02
      1.758  0.2098E+01  0.2098E+01  0.4244E+02  0.4244E+02
      1.965  0.1777E+01  0.1777E+01  0.4341E+02  0.4341E+02
      2.172  0.1481E+01  0.1481E+01  0.4432E+02  0.4432E+02
      2.379  0.1819E+01  0.1819E+01  0.4539E+02  0.4539E+02
      2.585  0.2281E+01  0.2281E+01  0.4647E+02  0.4647E+02
      2.792  0.1961E+01  0.1961E+01  0.4760E+02  0.4760E+02
      2.999  0.1411E+01  0.1411E+01  0.4839E+02  0.4839E+02
      3.206  0.1882E+01  0.1882E+01  0.4944E+02  0.4944E+02
      3.413  0.3832E+00  0.3832E+00  0.4991E+02  0.4991E+02
      3.619  0.3140E-01  0.3140E-01  0.5000E+02  0.5000E+02
      3.826  0.0000E+00  0.0000E+00  0.5000E+02  0.5000E+02
      4.033  0.0000E+00  0.0000E+00  0.5000E+02  0.5000E+02
      4.240  0.0000E+00  0.0000E+00  0.5000E+02  0.5000E+02
      4.447  0.0000E+00  0.0000E+00  0.5000E+02  0.5000E+02
      4.653  0.0000E+00  0.0000E+00  0.5000E+02  0.5000E+02
      4.860  0.0000E+00  0.0000E+00  0.5000E+02  0.5000E+02
      5.067  0.0000E+00  0.0000E+00  0.5000E+02  0.5000E+02
      5.274  0.1850E+00  0.1850E+00  0.5004E+02  0.5004E+02
      5.481  0.9593E+00  0.9593E+00  0.5053E+02  0.5053E+02
      5.687  0.3152E+01  0.3152E+01  0.5201E+02  0.5201E+02
      5.894  0.2268E+01  0.2268E+01  0.5302E+02  0.5302E+02
      6.101  0.8476E+00  0.8476E+00  0.5388E+02  0.5388E+02
      6.308  0.2582E+01  0.2582E+01  0.5475E+02  0.5475E+02
      6.515  0.3457E+01  0.3457E+01  0.5642E+02  0.5642E+02
      6.721  0.1943E+01  0.1943E+01  0.5761E+02  0.5761E+02
      6.928  0.2870E+01  0.2870E+01  0.5898E+02  0.5898E+02
      7.135  0.6845E+00  0.6845E+00  0.5958E+02  0.5958E+02
      7.342  0.6129E-03  0.6118E-03  0.5975E+02  0.5975E+02
      7.549  0.2555E+00  0.2554E+00  0.5995E+02  0.5995E+02
      7.755  0.0000E+00  0.0000E+00  0.6000E+02  0.6000E+02
      7.962  0.0000E+00  0.0000E+00  0.6000E+02  0.6000E+02
      8.169  0.0000E+00  0.0000E+00  0.6000E+02  0.6000E+02
      8.376  0.0000E+00  0.0000E+00  0.6000E+02  0.6000E+02
      8.583  0.0000E+00  0.0000E+00  0.6000E+02  0.6000E+02
      8.789  0.0000E+00  0.0000E+00  0.6000E+02  0.6000E+02
      8.996  0.0000E+00  0.0000E+00  0.6000E+02  0.6000E+02
      9.203  0.0000E+00  0.0000E+00  0.6000E+02  0.6000E+02
      9.410  0.0000E+00  0.0000E+00  0.6000E+02  0.6000E+02
      9.617  0.0000E+00  0.0000E+00  0.6000E+02  0.6000E+02
      9.823  0.0000E+00  0.0000E+00  0.6000E+02  0.6000E+02
     10.030  0.0000E+00  0.0000E+00  0.6000E+02  0.6000E+02
     10.237  0.0000E+00  0.0000E+00  0.6000E+02  0.6000E+02
     10.444  0.0000E+00  0.0000E+00  0.6000E+02  0.6000E+02
