       N       E                     dE             d eps       ncg     rms          ort
SDA:   1     0.172637771073E+03    0.17264E+03    0.00000E+00  9300   0.722E+03 0.000E+00
CGA:   2     0.314063605157E+01   -0.16950E+03   -0.16946E+03  9300   0.379E+03-0.835E+01
CGA:   3    -0.807529438691E+02   -0.83894E+02   -0.83624E+02  9300   0.110E+03 0.515E+01
CGA:   4    -0.106348620937E+03   -0.25596E+02   -0.25478E+02  9300   0.487E+02 0.129E+01
CGA:   5    -0.119681388976E+03   -0.13333E+02   -0.13105E+02  9300   0.206E+02 0.931E+00
CGA:   6    -0.125609526464E+03   -0.59281E+01   -0.76392E+01  9300   0.185E+02-0.780E+01
CGA:   7    -0.127857514457E+03   -0.22480E+01   -0.22095E+01  9300   0.813E+01-0.830E+00
CGA:   8    -0.129397352816E+03   -0.15398E+01   -0.15409E+01  9300   0.376E+01 0.200E-01
CGA:   9    -0.130148035894E+03   -0.75068E+00   -0.75095E+00  9300   0.154E+01 0.134E-01
CGA:  10    -0.130519977538E+03   -0.37194E+00   -0.37176E+00  9300   0.776E+00 0.187E-02
CGA:  11    -0.130699215979E+03   -0.17924E+00   -0.17929E+00  9300   0.388E+00-0.431E-02
CGA:  12    -0.130802394622E+03   -0.10318E+00   -0.10334E+00  9300   0.220E+00-0.258E-02
CGA:  13    -0.130858028494E+03   -0.55634E-01   -0.55673E-01  9300   0.990E-01-0.779E-03
CGA:  14    -0.130882748682E+03   -0.24720E-01   -0.24729E-01  9300   0.469E-01-0.177E-03
CGA:  15    -0.130894280967E+03   -0.11532E-01   -0.11527E-01  9300   0.162E-01 0.245E-03
CGA:  16    -0.130898476275E+03   -0.41953E-02   -0.41917E-02  9300   0.744E-02 0.102E-03
CGA:  17    -0.130900469519E+03   -0.19932E-02   -0.19970E-02  9300   0.352E-02-0.866E-04
CGA:  18    -0.130901584806E+03   -0.11153E-02   -0.11190E-02  9300   0.197E-02-0.396E-04
CGA:  19    -0.130902173977E+03   -0.58917E-03   -0.58737E-03  9300   0.105E-02 0.283E-04
CGA:  20    -0.130902456137E+03   -0.28216E-03   -0.28174E-03  9300   0.407E-03 0.159E-04
CGA:  21    -0.130902574882E+03   -0.11874E-03   -0.11758E-03  9300   0.166E-03 0.243E-04
CGA:  22    -0.130902621419E+03   -0.46537E-04   -0.46146E-04  9300   0.738E-04 0.159E-04
CGA:  23    -0.130902645940E+03   -0.24521E-04   -0.24484E-04  9300   0.343E-04 0.560E-06
CGA:  24    -0.130902657682E+03   -0.11742E-04   -0.11558E-04  9300   0.183E-04 0.199E-05
CGA:  25    -0.130902662916E+03   -0.52347E-05   -0.51706E-05  9300   0.847E-05 0.327E-05
CGA:  26    -0.130902665740E+03   -0.28233E-05   -0.27882E-05  9300   0.326E-05 0.112E-05
CGA:  27    -0.130902666711E+03   -0.97094E-06   -0.96227E-06  9300   0.138E-05 0.802E-06
   1 F= -.13090267E+03 E0= -.13090267E+03  d E =-.561889E-52  mag=    -0.0000
