 vasp.5.4.4.18Apr17-6-g9f103f2a35 (build Nov 08 2022 17:27:33) complex          
  
 executed on             LinuxIFC date 2022.11.22  21:29:26
 running on   16 total cores
 distrk:  each k-point on   16 cores,    1 groups
 distr:  one band on NCORES_PER_BAND=   4 cores,    4 groups


--------------------------------------------------------------------------------------------------------


 INCAR:
 POTCAR:    PAW_PBE Mn_pv 02Aug2007               
 POTCAR:    PAW_PBE O 08Apr2002                   
 POTCAR:    PAW_PBE Mn_pv 02Aug2007               
   VRHFIN =Mn: 3p4s3d                                                           
   LEXCH  = PE                                                                  
   EATOM  =  2025.2664 eV,  148.8529 Ry                                         
                                                                                
   TITEL  = PAW_PBE Mn_pv 02Aug2007                                             
   LULTRA =        F    use ultrasoft PP ?                                      
   IUNSCR =        1    unscreen: 0-lin 1-nonlin 2-no                           
   RPACOR =    2.080    partial core radius                                     
   POMASS =   54.938; ZVAL   =   13.000    mass and valenz                      
   RCORE  =    2.300    outmost cutoff radius                                   
   RWIGS  =    2.500; RWIGS  =    1.323    wigner-seitz radius (au A)           
   ENMAX  =  269.864; ENMIN  =  202.398 eV                                      
   ICORE  =        3    local potential                                         
   LCOR   =        T    correct aug charges                                     
   LPAW   =        T    paw PP                                                  
   EAUG   =  569.085                                                            
   DEXC   =    0.000                                                            
   RMAX   =    2.343    core radius for proj-oper                               
   RAUG   =    1.300    factor for augmentation sphere                          
   RDEP   =    2.338    radius for radial grids                                 
   RDEPT  =    1.798    core radius for aug-charge                              
                                                                                
   Atomic configuration                                                         
    8 entries                                                                   
     n  l   j            E        occ.                                          
     1  0  0.50     -6424.8287   2.0000                                         
     2  0  0.50      -739.1154   2.0000                                         
     2  1  1.50      -625.3949   6.0000                                         
     3  0  0.50       -81.6100   2.0000                                         
     3  1  1.50       -50.4667   6.0000                                         
     3  2  2.50        -3.3745   6.0000                                         
     4  0  0.50        -4.1331   1.0000                                         
     4  3  2.50        -1.3606   0.0000                                         
   Description                                                                  
     l       E           TYP  RCUT    TYP  RCUT                                 
     1    -50.4666628     23  2.000                                             
     1     -1.3605826     23  2.000                                             
     2     -3.3744729     23  2.300                                             
     2     -4.7350555     23  2.300                                             
     0     -4.1331431     23  2.300                                             
     0      7.6656591     23  2.300                                             
     3      9.5240782     23  2.300                                             
  local pseudopotential read in
  partial core-charges read in
  partial kinetic energy density read in
  atomic valenz-charges read in
  non local Contribution for L=           1  read in
    real space projection operators read in
  non local Contribution for L=           1  read in
    real space projection operators read in
  non local Contribution for L=           2  read in
    real space projection operators read in
  non local Contribution for L=           2  read in
    real space projection operators read in
  non local Contribution for L=           0  read in
    real space projection operators read in
  non local Contribution for L=           0  read in
    real space projection operators read in
    PAW grid and wavefunctions read in
 
   number of l-projection  operators is LMAX  =           6
   number of lm-projection operators is LMMAX =          18
 
 POTCAR:    PAW_PBE O 08Apr2002                   
   VRHFIN =O: s2p4                                                              
   LEXCH  = PE                                                                  
   EATOM  =   432.3788 eV,   31.7789 Ry                                         
                                                                                
   TITEL  = PAW_PBE O 08Apr2002                                                 
   LULTRA =        F    use ultrasoft PP ?                                      
   IUNSCR =        1    unscreen: 0-lin 1-nonlin 2-no                           
   RPACOR =    1.200    partial core radius                                     
   POMASS =   16.000; ZVAL   =    6.000    mass and valenz                      
   RCORE  =    1.520    outmost cutoff radius                                   
   RWIGS  =    1.550; RWIGS  =    0.820    wigner-seitz radius (au A)           
   ENMAX  =  400.000; ENMIN  =  300.000 eV                                      
   ICORE  =        2    local potential                                         
   LCOR   =        T    correct aug charges                                     
   LPAW   =        T    paw PP                                                  
   EAUG   =  605.392                                                            
   DEXC   =    0.000                                                            
   RMAX   =    1.553    core radius for proj-oper                               
   RAUG   =    1.300    factor for augmentation sphere                          
   RDEP   =    1.550    radius for radial grids                                 
   RDEPT  =    1.329    core radius for aug-charge                              
                                                                                
   Atomic configuration                                                         
    4 entries                                                                   
     n  l   j            E        occ.                                          
     1  0  0.50      -514.6923   2.0000                                         
     2  0  0.50       -23.9615   2.0000                                         
     2  1  0.50        -9.0305   4.0000                                         
     3  2  1.50        -9.5241   0.0000                                         
   Description                                                                  
     l       E           TYP  RCUT    TYP  RCUT                                 
     0    -23.9615318     23  1.200                                             
     0     -9.5240782     23  1.200                                             
     1     -9.0304911     23  1.520                                             
     1      8.1634956     23  1.520                                             
     2     -9.5240782      7  1.500                                             
  local pseudopotential read in
  partial core-charges read in
  partial kinetic energy density read in
  kinetic energy density of atom read in
  atomic valenz-charges read in
  non local Contribution for L=           0  read in
    real space projection operators read in
  non local Contribution for L=           0  read in
    real space projection operators read in
  non local Contribution for L=           1  read in
    real space projection operators read in
  non local Contribution for L=           1  read in
    real space projection operators read in
    PAW grid and wavefunctions read in
 
   number of l-projection  operators is LMAX  =           4
   number of lm-projection operators is LMMAX =           8
 
  PAW_PBE Mn_pv 02Aug2007               :
 energy of atom  1       EATOM=-2025.2664
 kinetic energy error for atom=    0.0058 (will be added to EATOM!!)
  PAW_PBE O 08Apr2002                   :
 energy of atom  2       EATOM= -432.3788
 kinetic energy error for atom=    0.0208 (will be added to EATOM!!)
 
 
 POSCAR: Mn4 O8                                  
  positions in direct lattice
  velocities in cartesian coordinates

 METAGGA = R2SCA    LMAXTAU =  6    LMIXTAU =  T

 exchange correlation table for  LEXCH =        8
   RHO(1)=    0.500       N(1)  =     2000
   RHO(2)=  100.500       N(2)  =     4000

 VTST: version 3.2, (02/03/18)

 CHAIN: initializing optimizer
 
 OPT: Using VASP Conjugate-Gradient optimizer
 CHAIN: Read ICHAIN            0
 
 POSCAR: Mn4 O8                                  
  positions in direct lattice
  velocities in cartesian coordinates
 


--------------------------------------------------------------------------------------------------------


 ion  position               nearest neighbor table
   1  0.250  0.030  0.865-  10 1.87  12 1.88  12 1.88   6 1.90   6 1.90   7 1.91   2 2.88   2 2.88

   2  0.750  0.970  0.135-  11 1.87   9 1.88   9 1.88   7 1.90   7 1.90   6 1.91   1 2.88   1 2.88

   3  0.750  0.530  0.635-  12 1.87  10 1.88  10 1.88   5 1.90   5 1.90   8 1.91   4 2.88   4 2.88

   4  0.250  0.470  0.365-   9 1.87  11 1.88  11 1.88   8 1.90   8 1.90   5 1.91   3 2.88   3 2.88

   5  0.250  0.713  0.534-   3 1.90   3 1.90   4 1.91
   6  0.750  0.213  0.966-   1 1.90   1 1.90   2 1.91
   7  0.250  0.787  0.034-   2 1.90   2 1.90   1 1.91
   8  0.750  0.287  0.466-   4 1.90   4 1.90   3 1.91
   9  0.250  0.176  0.222-   4 1.87   2 1.88   2 1.88
  10  0.250  0.324  0.722-   1 1.87   3 1.88   3 1.88
  11  0.750  0.676  0.278-   2 1.87   4 1.88   4 1.88
  12  0.750  0.824  0.778-   3 1.87   1 1.88   1 1.88
 

IMPORTANT INFORMATION: All symmetrisations will be switched off!
NOSYMM: (Re-)initialisation of all symmetry stuff for point group C_1.

 
 

Automatic generation of k-mesh.
 generate k-points for:   11    7    4
Space group operators:
 irot       det(A)        alpha          n_x          n_y          n_z        tau_x        tau_y        tau_z
    1     1.000000     0.000001     1.000000     0.000000     0.000000     0.000000     0.000000     0.000000
 
 Subroutine IBZKPT returns following result:
 ===========================================
 
 Found    155 irreducible k-points:
 
 Following reciprocal coordinates:
            Coordinates               Weight
  0.000000  0.000000  0.000000      1.000000
  0.090909  0.000000 -0.000000      2.000000
  0.181818  0.000000 -0.000000      2.000000
  0.272727 -0.000000  0.000000      2.000000
  0.363636  0.000000 -0.000000      2.000000
  0.454545  0.000000  0.000000      2.000000
  0.000000  0.142857  0.000000      2.000000
  0.090909  0.142857 -0.000000      2.000000
  0.181818  0.142857  0.000000      2.000000
  0.272727  0.142857 -0.000000      2.000000
  0.363636  0.142857  0.000000      2.000000
  0.454545  0.142857  0.000000      2.000000
 -0.454545  0.142857  0.000000      2.000000
 -0.363636  0.142857  0.000000      2.000000
 -0.272727  0.142857  0.000000      2.000000
 -0.181818  0.142857  0.000000      2.000000
 -0.090909  0.142857  0.000000      2.000000
 -0.000000  0.285714  0.000000      2.000000
  0.090909  0.285714  0.000000      2.000000
  0.181818  0.285714  0.000000      2.000000
  0.272727  0.285714  0.000000      2.000000
  0.363636  0.285714  0.000000      2.000000
  0.454545  0.285714  0.000000      2.000000
 -0.454545  0.285714 -0.000000      2.000000
 -0.363636  0.285714  0.000000      2.000000
 -0.272727  0.285714  0.000000      2.000000
 -0.181818  0.285714  0.000000      2.000000
 -0.090909  0.285714  0.000000      2.000000
 -0.000000  0.428571 -0.000000      2.000000
  0.090909  0.428571  0.000000      2.000000
  0.181818  0.428571 -0.000000      2.000000
  0.272727  0.428571 -0.000000      2.000000
  0.363636  0.428571 -0.000000      2.000000
  0.454545  0.428571  0.000000      2.000000
 -0.454545  0.428571 -0.000000      2.000000
 -0.363636  0.428571 -0.000000      2.000000
 -0.272727  0.428571  0.000000      2.000000
 -0.181818  0.428571  0.000000      2.000000
 -0.090909  0.428571 -0.000000      2.000000
 -0.000000  0.000000  0.250000      2.000000
  0.090909  0.000000  0.250000      2.000000
  0.181818  0.000000  0.250000      2.000000
  0.272727  0.000000  0.250000      2.000000
  0.363636 -0.000000  0.250000      2.000000
  0.454545  0.000000  0.250000      2.000000
 -0.454545  0.000000  0.250000      2.000000
 -0.363636 -0.000000  0.250000      2.000000
 -0.272727  0.000000  0.250000      2.000000
 -0.181818  0.000000  0.250000      2.000000
 -0.090909  0.000000  0.250000      2.000000
 -0.000000  0.142857  0.250000      2.000000
  0.090909  0.142857  0.250000      2.000000
  0.181818  0.142857  0.250000      2.000000
  0.272727  0.142857  0.250000      2.000000
  0.363636  0.142857  0.250000      2.000000
  0.454545  0.142857  0.250000      2.000000
 -0.454545  0.142857  0.250000      2.000000
 -0.363636  0.142857  0.250000      2.000000
 -0.272727  0.142857  0.250000      2.000000
 -0.181818  0.142857  0.250000      2.000000
 -0.090909  0.142857  0.250000      2.000000
 -0.000000  0.285714  0.250000      2.000000
  0.090909  0.285714  0.250000      2.000000
  0.181818  0.285714  0.250000      2.000000
  0.272727  0.285714  0.250000      2.000000
  0.363636  0.285714  0.250000      2.000000
  0.454545  0.285714  0.250000      2.000000
 -0.454545  0.285714  0.250000      2.000000
 -0.363636  0.285714  0.250000      2.000000
 -0.272727  0.285714  0.250000      2.000000
 -0.181818  0.285714  0.250000      2.000000
 -0.090909  0.285714  0.250000      2.000000
 -0.000000  0.428571  0.250000      2.000000
  0.090909  0.428571  0.250000      2.000000
  0.181818  0.428571  0.250000      2.000000
  0.272727  0.428571  0.250000      2.000000
  0.363636  0.428571  0.250000      2.000000
  0.454545  0.428571  0.250000      2.000000
 -0.454545  0.428571  0.250000      2.000000
 -0.363636  0.428571  0.250000      2.000000
 -0.272727  0.428571  0.250000      2.000000
 -0.181818  0.428571  0.250000      2.000000
 -0.090909  0.428571  0.250000      2.000000
  0.000000 -0.428571  0.250000      2.000000
  0.090909 -0.428571  0.250000      2.000000
  0.181818 -0.428571  0.250000      2.000000
  0.272727 -0.428571  0.250000      2.000000
  0.363636 -0.428571  0.250000      2.000000
  0.454545 -0.428571  0.250000      2.000000
 -0.454545 -0.428571  0.250000      2.000000
 -0.363636 -0.428571  0.250000      2.000000
 -0.272727 -0.428571  0.250000      2.000000
 -0.181818 -0.428571  0.250000      2.000000
 -0.090909 -0.428571  0.250000      2.000000
  0.000000 -0.285714  0.250000      2.000000
  0.090909 -0.285714  0.250000      2.000000
  0.181818 -0.285714  0.250000      2.000000
  0.272727 -0.285714  0.250000      2.000000
  0.363636 -0.285714  0.250000      2.000000
  0.454545 -0.285714  0.250000      2.000000
 -0.454545 -0.285714  0.250000      2.000000
 -0.363636 -0.285714  0.250000      2.000000
 -0.272727 -0.285714  0.250000      2.000000
 -0.181818 -0.285714  0.250000      2.000000
 -0.090909 -0.285714  0.250000      2.000000
  0.000000 -0.142857  0.250000      2.000000
  0.090909 -0.142857  0.250000      2.000000
  0.181818 -0.142857  0.250000      2.000000
  0.272727 -0.142857  0.250000      2.000000
  0.363636 -0.142857  0.250000      2.000000
  0.454545 -0.142857  0.250000      2.000000
 -0.454545 -0.142857  0.250000      2.000000
 -0.363636 -0.142857  0.250000      2.000000
 -0.272727 -0.142857  0.250000      2.000000
 -0.181818 -0.142857  0.250000      2.000000
 -0.090909 -0.142857  0.250000      2.000000
 -0.000000  0.000000  0.500000      1.000000
  0.090909  0.000000  0.500000      2.000000
  0.181818  0.000000  0.500000      2.000000
  0.272727  0.000000  0.500000      2.000000
  0.363636  0.000000  0.500000      2.000000
  0.454545  0.000000  0.500000      2.000000
 -0.000000  0.142857  0.500000      2.000000
  0.090909  0.142857  0.500000      2.000000
  0.181818  0.142857  0.500000      2.000000
  0.272727  0.142857  0.500000      2.000000
  0.363636  0.142857  0.500000      2.000000
  0.454545  0.142857  0.500000      2.000000
 -0.454545  0.142857  0.500000      2.000000
 -0.363636  0.142857  0.500000      2.000000
 -0.272727  0.142857  0.500000      2.000000
 -0.181818  0.142857  0.500000      2.000000
 -0.090909  0.142857  0.500000      2.000000
 -0.000000  0.285714  0.500000      2.000000
  0.090909  0.285714  0.500000      2.000000
  0.181818  0.285714  0.500000      2.000000
  0.272727  0.285714  0.500000      2.000000
  0.363636  0.285714  0.500000      2.000000
  0.454545  0.285714  0.500000      2.000000
 -0.454545  0.285714  0.500000      2.000000
 -0.363636  0.285714  0.500000      2.000000
 -0.272727  0.285714  0.500000      2.000000
 -0.181818  0.285714  0.500000      2.000000
 -0.090909  0.285714  0.500000      2.000000
 -0.000000  0.428571  0.500000      2.000000
  0.090909  0.428571  0.500000      2.000000
  0.181818  0.428571  0.500000      2.000000
  0.272727  0.428571  0.500000      2.000000
  0.363636  0.428571  0.500000      2.000000
  0.454545  0.428571  0.500000      2.000000
 -0.454545  0.428571  0.500000      2.000000
 -0.363636  0.428571  0.500000      2.000000
 -0.272727  0.428571  0.500000      2.000000
 -0.181818  0.428571  0.500000      2.000000
 -0.090909  0.428571  0.500000      2.000000
 
 Following cartesian coordinates:
            Coordinates               Weight
  0.000000  0.000000  0.000000      1.000000
  0.031849  0.000000 -0.000000      2.000000
  0.063699  0.000000 -0.000000      2.000000
  0.095548  0.000000 -0.000000      2.000000
  0.127397  0.000000 -0.000000      2.000000
  0.159247  0.000000 -0.000000      2.000000
  0.000000  0.031432  0.000000      2.000000
  0.031849  0.031432  0.000000      2.000000
  0.063699  0.031432  0.000000      2.000000
  0.095548  0.031432  0.000000      2.000000
  0.127397  0.031432  0.000000      2.000000
  0.159247  0.031432  0.000000      2.000000
 -0.159247  0.031432  0.000000      2.000000
 -0.127397  0.031432  0.000000      2.000000
 -0.095548  0.031432  0.000000      2.000000
 -0.063699  0.031432  0.000000      2.000000
 -0.031849  0.031432  0.000000      2.000000
  0.000000  0.062864  0.000000      2.000000
  0.031849  0.062864  0.000000      2.000000
  0.063699  0.062865  0.000000      2.000000
  0.095548  0.062865  0.000000      2.000000
  0.127397  0.062865  0.000000      2.000000
  0.159247  0.062865  0.000000      2.000000
 -0.159247  0.062864  0.000000      2.000000
 -0.127397  0.062864  0.000000      2.000000
 -0.095548  0.062864  0.000000      2.000000
 -0.063699  0.062864  0.000000      2.000000
 -0.031849  0.062864  0.000000      2.000000
  0.000000  0.094297  0.000001      2.000000
  0.031849  0.094297  0.000001      2.000000
  0.063699  0.094297  0.000001      2.000000
  0.095548  0.094297  0.000001      2.000000
  0.127397  0.094297  0.000001      2.000000
  0.159247  0.094297  0.000001      2.000000
 -0.159247  0.094296  0.000001      2.000000
 -0.127397  0.094296  0.000001      2.000000
 -0.095548  0.094296  0.000001      2.000000
 -0.063699  0.094296  0.000001      2.000000
 -0.031849  0.094297  0.000001      2.000000
  0.000000  0.000000  0.027191      2.000000
  0.031849  0.000000  0.027191      2.000000
  0.063699  0.000000  0.027191      2.000000
  0.095548  0.000000  0.027191      2.000000
  0.127397  0.000000  0.027191      2.000000
  0.159247  0.000000  0.027191      2.000000
 -0.159247 -0.000000  0.027191      2.000000
 -0.127397 -0.000000  0.027191      2.000000
 -0.095548 -0.000000  0.027191      2.000000
 -0.063699 -0.000000  0.027191      2.000000
 -0.031849  0.000000  0.027191      2.000000
  0.000000  0.031432  0.027191      2.000000
  0.031849  0.031432  0.027191      2.000000
  0.063699  0.031432  0.027191      2.000000
  0.095548  0.031432  0.027191      2.000000
  0.127397  0.031433  0.027191      2.000000
  0.159247  0.031433  0.027191      2.000000
 -0.159247  0.031432  0.027191      2.000000
 -0.127397  0.031432  0.027191      2.000000
 -0.095548  0.031432  0.027191      2.000000
 -0.063699  0.031432  0.027191      2.000000
 -0.031849  0.031432  0.027191      2.000000
  0.000000  0.062865  0.027192      2.000000
  0.031849  0.062865  0.027192      2.000000
  0.063699  0.062865  0.027192      2.000000
  0.095548  0.062865  0.027192      2.000000
  0.127397  0.062865  0.027192      2.000000
  0.159247  0.062865  0.027192      2.000000
 -0.159247  0.062864  0.027192      2.000000
 -0.127397  0.062864  0.027192      2.000000
 -0.095548  0.062864  0.027192      2.000000
 -0.063699  0.062864  0.027192      2.000000
 -0.031849  0.062864  0.027192      2.000000
  0.000000  0.094297  0.027192      2.000000
  0.031849  0.094297  0.027192      2.000000
  0.063699  0.094297  0.027192      2.000000
  0.095548  0.094297  0.027192      2.000000
  0.127398  0.094297  0.027192      2.000000
  0.159247  0.094297  0.027192      2.000000
 -0.159247  0.094296  0.027192      2.000000
 -0.127397  0.094296  0.027192      2.000000
 -0.095548  0.094297  0.027192      2.000000
 -0.063699  0.094297  0.027192      2.000000
 -0.031849  0.094297  0.027192      2.000000
 -0.000000 -0.094297  0.027191      2.000000
  0.031849 -0.094296  0.027191      2.000000
  0.063699 -0.094296  0.027191      2.000000
  0.095548 -0.094296  0.027191      2.000000
  0.127397 -0.094296  0.027191      2.000000
  0.159247 -0.094296  0.027191      2.000000
 -0.159247 -0.094297  0.027191      2.000000
 -0.127397 -0.094297  0.027191      2.000000
 -0.095548 -0.094297  0.027191      2.000000
 -0.063699 -0.094297  0.027191      2.000000
 -0.031849 -0.094297  0.027191      2.000000
 -0.000000 -0.062864  0.027191      2.000000
  0.031849 -0.062864  0.027191      2.000000
  0.063699 -0.062864  0.027191      2.000000
  0.095548 -0.062864  0.027191      2.000000
  0.127397 -0.062864  0.027191      2.000000
  0.159247 -0.062864  0.027191      2.000000
 -0.159247 -0.062865  0.027191      2.000000
 -0.127397 -0.062865  0.027191      2.000000
 -0.095548 -0.062864  0.027191      2.000000
 -0.063699 -0.062864  0.027191      2.000000
 -0.031849 -0.062864  0.027191      2.000000
 -0.000000 -0.031432  0.027191      2.000000
  0.031849 -0.031432  0.027191      2.000000
  0.063699 -0.031432  0.027191      2.000000
  0.095548 -0.031432  0.027191      2.000000
  0.127397 -0.031432  0.027191      2.000000
  0.159247 -0.031432  0.027191      2.000000
 -0.159247 -0.031432  0.027191      2.000000
 -0.127397 -0.031432  0.027191      2.000000
 -0.095548 -0.031432  0.027191      2.000000
 -0.063699 -0.031432  0.027191      2.000000
 -0.031849 -0.031432  0.027191      2.000000
  0.000000  0.000000  0.054382      1.000000
  0.031849  0.000000  0.054382      2.000000
  0.063699  0.000000  0.054382      2.000000
  0.095548  0.000000  0.054382      2.000000
  0.127397  0.000000  0.054382      2.000000
  0.159247  0.000001  0.054382      2.000000
  0.000000  0.031432  0.054383      2.000000
  0.031849  0.031432  0.054383      2.000000
  0.063699  0.031433  0.054383      2.000000
  0.095548  0.031433  0.054383      2.000000
  0.127397  0.031433  0.054383      2.000000
  0.159247  0.031433  0.054383      2.000000
 -0.159247  0.031432  0.054383      2.000000
 -0.127397  0.031432  0.054383      2.000000
 -0.095548  0.031432  0.054383      2.000000
 -0.063699  0.031432  0.054383      2.000000
 -0.031849  0.031432  0.054383      2.000000
  0.000000  0.062865  0.054383      2.000000
  0.031849  0.062865  0.054383      2.000000
  0.063699  0.062865  0.054383      2.000000
  0.095548  0.062865  0.054383      2.000000
  0.127397  0.062865  0.054383      2.000000
  0.159247  0.062865  0.054383      2.000000
 -0.159247  0.062864  0.054383      2.000000
 -0.127397  0.062864  0.054383      2.000000
 -0.095548  0.062864  0.054383      2.000000
 -0.063699  0.062865  0.054383      2.000000
 -0.031849  0.062865  0.054383      2.000000
  0.000000  0.094297  0.054383      2.000000
  0.031849  0.094297  0.054383      2.000000
  0.063699  0.094297  0.054383      2.000000
  0.095548  0.094297  0.054383      2.000000
  0.127398  0.094297  0.054383      2.000000
  0.159247  0.094297  0.054383      2.000000
 -0.159247  0.094297  0.054383      2.000000
 -0.127397  0.094297  0.054383      2.000000
 -0.095548  0.094297  0.054383      2.000000
 -0.063699  0.094297  0.054383      2.000000
 -0.031849  0.094297  0.054383      2.000000
 


--------------------------------------------------------------------------------------------------------




 Dimension of arrays:
   k-points           NKPTS =    155   k-points in BZ     NKDIM =    155   number of bands    NBANDS=     60
   number of dos      NEDOS =    301   number of ions     NIONS =     12
   non local maximal  LDIM  =      6   non local SUM 2l+1 LMDIM =     18
   total plane-waves  NPLWV =  60480
   max r-space proj   IRMAX =      1   max aug-charges    IRDMAX=  15584
   dimension x,y,z NGX =    24 NGY =   36 NGZ =   70
   dimension x,y,z NGXF=    48 NGYF=   72 NGZF=  140
   support grid    NGXF=    48 NGYF=   72 NGZF=  140
   ions per type =               4   8
   NGX,Y,Z   is equivalent  to a cutoff of  13.98, 13.17, 12.66 a.u.
   NGXF,Y,Z  is equivalent  to a cutoff of  27.96, 26.34, 25.31 a.u.

 SYSTEM =  unknown system                          
 POSCAR =  Mn4 O8                                  

 Startparameter for this run:
   NWRITE =      2    write-flag & timer
   PREC   = accura    normal or accurate (medium, high low for compatibility)
   ISTART =      1    job   : 0-new  1-cont  2-samecut
   ICHARG =      0    charge: 1-file 2-atom 10-const
   ISPIN  =      2    spin polarized calculation?
   LNONCOLLINEAR =      F non collinear calculations
   LSORBIT =      F    spin-orbit coupling
   INIWAV =      1    electr: 0-lowe 1-rand  2-diag
   LASPH  =      T    aspherical Exc in radial PAW
   METAGGA=      F    non-selfconsistent MetaGGA calc.

 Electronic Relaxation 1
   ENCUT  =  520.0 eV  38.22 Ry    6.18 a.u.   5.31  8.45 17.10*2*pi/ulx,y,z
   ENINI  =  520.0     initial cutoff
   ENAUG  = 1040.0 eV  augmentation charge cutoff
   NELM   =    200;   NELMIN=  2; NELMDL=  0     # of ELM steps 
   EDIFF  = 0.1E-05   stopping-criterion for ELM
   LREAL  =      F    real-space projection
   NLSPLINE    = F    spline interpolate recip. space projectors
   LCOMPAT=      F    compatible to vasp.4.4
   GGA_COMPAT  = T    GGA compatible to vasp.4.4-vasp.4.6
   LMAXPAW     = -100 max onsite density
   LMAXMIX     =    4 max onsite mixed and CHGCAR
   VOSKOWN=      0    Vosko Wilk Nusair interpolation
   ROPT   =    0.00000   0.00000
 Ionic relaxation
   EDIFFG = -.3E-01   stopping-criterion for IOM
   NSW    =      0    number of steps for IOM
   NBLOCK =      1;   KBLOCK =      1    inner block; outer block 
   IBRION =     -1    ionic relax: 0-MD 1-quasi-New 2-CG
   NFREE  =      1    steps in history (QN), initial steepest desc. (CG)
   ISIF   =      3    stress and relaxation
   IWAVPR =     10    prediction:  0-non 1-charg 2-wave 3-comb
   ISYM   =      0    0-nonsym 1-usesym 2-fastsym
   LCORR  =      T    Harris-Foulkes like correction to forces

   POTIM  = 0.5000    time-step for ionic-motion
   TEIN   =    0.0    initial temperature
   TEBEG  =    0.0;   TEEND  =   0.0 temperature during run
   SMASS  =  -3.00    Nose mass-parameter (am)
   estimated Nose-frequenzy (Omega)   =  0.10E-29 period in steps =****** mass=  -0.186E-27a.u.
   SCALEE = 1.0000    scale energy and forces
   NPACO  =    256;   APACO  = 16.0  distance and # of slots for P.C.
   PSTRESS=    0.0 pullay stress

  Mass of Ions in am
   POMASS =  54.94 16.00
  Ionic Valenz
   ZVAL   =  13.00  6.00
  Atomic Wigner-Seitz radii
   RWIGS  =  -1.00 -1.00
  virtual crystal weights 
   VCA    =   1.00  1.00
   NELECT =     100.0000    total number of electrons
   NUPDOWN=      -1.0000    fix difference up-down

 DOS related values:
   EMIN   =  10.00;   EMAX   =-10.00  energy-range for DOS
   EFERMI =   0.00
   ISMEAR =     0;   SIGMA  =   0.01  broadening in eV -4-tet -1-fermi 0-gaus

 Electronic relaxation 2 (details)
   IALGO  =     58    algorithm
   LDIAG  =      T    sub-space diagonalisation (order eigenvalues)
   LSUBROT=      F    optimize rotation matrix (better conditioning)
   TURBO    =      0    0=normal 1=particle mesh
   IRESTART =      0    0=no restart 2=restart with 2 vectors
   NREBOOT  =      0    no. of reboots
   NMIN     =      0    reboot dimension
   EREF     =   0.00    reference energy to select bands
   IMIX   =      4    mixing-type and parameters
     AMIX     =   0.40;   BMIX     =  1.00
     AMIX_MAG =   1.60;   BMIX_MAG =  1.00
     AMIN     =   0.10
     WC   =   100.;   INIMIX=   1;  MIXPRE=   1;  MAXMIX= -45

 Intra band minimization:
   WEIMIN = 0.0000     energy-eigenvalue tresh-hold
   EBREAK =  0.42E-08  absolut break condition
   DEPER  =   0.30     relativ break condition  

   TIME   =   0.40     timestep for ELM

  volume/ion in A,a.u.               =       9.94        67.07
  Fermi-wavevector in a.u.,A,eV,Ry     =   1.543689  2.917149 32.422357  2.382976
  Thomas-Fermi vector in A             =   2.649316
 
 Write flags
   LWAVE        =      T    write WAVECAR
   LDOWNSAMPLE  =      F    k-point downsampling of WAVECAR
   LCHARG       =      T    write CHGCAR
   LVTOT        =      F    write LOCPOT, total local potential
   LVHAR        =      T    write LOCPOT, Hartree potential only
   LELF         =      T    write electronic localiz. function (ELF)
   LORBIT       =      0    0 simple, 1 ext, 2 COOP (PROOUT), +10 PAW based schemes


 Dipole corrections
   LMONO  =      F    monopole corrections only (constant potential shift)
   LDIPOL =      F    correct potential (dipole corrections)
   IDIPOL =      0    1-x, 2-y, 3-z, 4-all directions 
   EPSILON=  1.0000000 bulk dielectric constant

 Exchange correlation treatment:
   GGA     =    PE    GGA type
   LEXCH   =     8    internal setting for exchange type
   VOSKOWN=      0    Vosko Wilk Nusair interpolation
   LHFCALC =     F    Hartree Fock is set to
   LHFONE  =     F    Hartree Fock one center treatment
   AEXX    =    0.0000 exact exchange contribution

 Linear response parameters
   LEPSILON=     F    determine dielectric tensor
   LRPA    =     F    only Hartree local field effects (RPA)
   LNABLA  =     F    use nabla operator in PAW spheres
   LVEL    =     F    velocity operator in full k-point grid
   LINTERFAST=   F  fast interpolation
   KINTER  =     0    interpolate to denser k-point grid
   CSHIFT  =0.1000    complex shift for real part using Kramers Kronig
   OMEGAMAX=  -1.0    maximum frequency
   DEG_THRESHOLD= 0.2000000E-02 threshold for treating states as degnerate
   RTIME   =   -0.100 relaxation time in fs
  (WPLASMAI=    0.000 imaginary part of plasma frequency in eV, 0.658/RTIME)
   DFIELD  = 0.0000000 0.0000000 0.0000000 field for delta impulse in time
 
 Orbital magnetization related:
   ORBITALMAG=     F  switch on orbital magnetization
   LCHIMAG   =     F  perturbation theory with respect to B field
   DQ        =  0.001000  dq finite difference perturbation B field
   LLRAUG    =     F  two centre corrections for induced B field



--------------------------------------------------------------------------------------------------------


 Static calculation
 charge density and potential will be updated during run
 spin polarized calculation
 Conjugate gradient for all bands (Freysoldt, et al. PRB 79, 241103 (2009))
 preconditioned conjugated gradient                                        
 perform sub-space diagonalisation
    before iterative eigenvector-optimisation
 modified Broyden-mixing scheme, WC =      100.0
 initial mixing is a Kerker type mixing with AMIX =  0.4000 and BMIX =      1.0000
 Hartree-type preconditioning will be used
 using additional bands           10
 reciprocal scheme for non local part
 use partial core corrections
 no Harris-corrections to forces 
 use gradient corrections 
 use of overlap-Matrix (Vanderbilt PP)
 Gauss-broadening in eV      SIGMA  =   0.01


--------------------------------------------------------------------------------------------------------


  energy-cutoff  :      520.00
  volume of cell :      119.27
      direct lattice vectors                 reciprocal lattice vectors
     2.854346809 -0.000002381 -0.000002308     0.350342851  0.000000650 -0.000000114
    -0.000008433  4.544929338 -0.000017861     0.000000184  0.220025423  0.000001471
     0.000002993 -0.000061454  9.194139798     0.000000088  0.000000427  0.108764933

  length of vectors
     2.854346809  4.544929338  9.194139798     0.350342851  0.220025423  0.108764933


 
 old parameters found on file WAVECAR:
  energy-cutoff  :      520.00
  volume of cell :      122.58
      direct lattice vectors                 reciprocal lattice vectors
     2.869097446 -0.000019175  0.000000990     0.348541665  0.000002664 -0.000000514
    -0.000035203  4.604828031 -0.000199220     0.000001451  0.217163376  0.000009959
     0.000013683 -0.000425507  9.278097277    -0.000000037  0.000004663  0.107780720

  length of vectors

 
 k-points in units of 2pi/SCALE and weight: read from INCAR                         
   0.00000000  0.00000000  0.00000000       0.003
   0.03184935  0.00000006 -0.00000001       0.006
   0.06369870  0.00000012 -0.00000002       0.006
   0.09554805  0.00000018 -0.00000003       0.006
   0.12739740  0.00000024 -0.00000004       0.006
   0.15924675  0.00000030 -0.00000005       0.006
   0.00000003  0.03143220  0.00000021       0.006
   0.03184938  0.03143226  0.00000020       0.006
   0.06369873  0.03143232  0.00000019       0.006
   0.09554808  0.03143238  0.00000018       0.006
   0.12739743  0.03143244  0.00000017       0.006
   0.15924678  0.03143250  0.00000016       0.006
  -0.15924672  0.03143191  0.00000026       0.006
  -0.12739737  0.03143197  0.00000025       0.006
  -0.09554802  0.03143203  0.00000024       0.006
  -0.06369867  0.03143209  0.00000023       0.006
  -0.03184932  0.03143214  0.00000022       0.006
   0.00000005  0.06286441  0.00000042       0.006
   0.03184940  0.06286447  0.00000041       0.006
   0.06369875  0.06286452  0.00000040       0.006
   0.09554810  0.06286458  0.00000039       0.006
   0.12739745  0.06286464  0.00000038       0.006
   0.15924680  0.06286470  0.00000037       0.006
  -0.15924670  0.06286411  0.00000047       0.006
  -0.12739735  0.06286417  0.00000046       0.006
  -0.09554800  0.06286423  0.00000045       0.006
  -0.06369865  0.06286429  0.00000044       0.006
  -0.03184930  0.06286435  0.00000043       0.006
   0.00000008  0.09429661  0.00000063       0.006
   0.03184943  0.09429667  0.00000062       0.006
   0.06369878  0.09429673  0.00000061       0.006
   0.09554813  0.09429679  0.00000060       0.006
   0.12739748  0.09429685  0.00000059       0.006
   0.15924683  0.09429691  0.00000058       0.006
  -0.15924667  0.09429631  0.00000068       0.006
  -0.12739732  0.09429637  0.00000067       0.006
  -0.09554797  0.09429643  0.00000066       0.006
  -0.06369862  0.09429649  0.00000065       0.006
  -0.03184927  0.09429655  0.00000064       0.006
   0.00000002  0.00000011  0.02719123       0.006
   0.03184937  0.00000017  0.02719122       0.006
   0.06369872  0.00000023  0.02719121       0.006
   0.09554807  0.00000028  0.02719120       0.006
   0.12739742  0.00000034  0.02719119       0.006
   0.15924677  0.00000040  0.02719118       0.006
  -0.15924673 -0.00000019  0.02719129       0.006
  -0.12739738 -0.00000013  0.02719127       0.006
  -0.09554803 -0.00000007  0.02719126       0.006
  -0.06369868 -0.00000001  0.02719125       0.006
  -0.03184933  0.00000005  0.02719124       0.006
   0.00000005  0.03143231  0.02719144       0.006
   0.03184940  0.03143237  0.02719143       0.006
   0.06369875  0.03143243  0.02719142       0.006
   0.09554810  0.03143249  0.02719141       0.006
   0.12739745  0.03143255  0.02719140       0.006
   0.15924680  0.03143261  0.02719139       0.006
  -0.15924670  0.03143201  0.02719150       0.006
  -0.12739735  0.03143207  0.02719148       0.006
  -0.09554800  0.03143213  0.02719147       0.006
  -0.06369865  0.03143219  0.02719146       0.006
  -0.03184930  0.03143225  0.02719145       0.006
   0.00000007  0.06286451  0.02719165       0.006
   0.03184942  0.06286457  0.02719164       0.006
   0.06369877  0.06286463  0.02719163       0.006
   0.09554812  0.06286469  0.02719162       0.006
   0.12739747  0.06286475  0.02719161       0.006
   0.15924683  0.06286481  0.02719160       0.006
  -0.15924668  0.06286422  0.02719171       0.006
  -0.12739733  0.06286428  0.02719169       0.006
  -0.09554798  0.06286434  0.02719168       0.006
  -0.06369863  0.06286440  0.02719167       0.006
  -0.03184928  0.06286445  0.02719166       0.006
   0.00000010  0.09429672  0.02719186       0.006
   0.03184945  0.09429678  0.02719185       0.006
   0.06369880  0.09429683  0.02719184       0.006
   0.09554815  0.09429689  0.02719183       0.006
   0.12739750  0.09429695  0.02719182       0.006
   0.15924685  0.09429701  0.02719181       0.006
  -0.15924665  0.09429642  0.02719192       0.006
  -0.12739730  0.09429648  0.02719191       0.006
  -0.09554795  0.09429654  0.02719189       0.006
  -0.06369860  0.09429660  0.02719188       0.006
  -0.03184925  0.09429666  0.02719187       0.006
  -0.00000006 -0.09429650  0.02719060       0.006
   0.03184929 -0.09429644  0.02719059       0.006
   0.06369864 -0.09429638  0.02719058       0.006
   0.09554799 -0.09429633  0.02719057       0.006
   0.12739734 -0.09429627  0.02719056       0.006
   0.15924669 -0.09429621  0.02719055       0.006
  -0.15924681 -0.09429680  0.02719065       0.006
  -0.12739746 -0.09429674  0.02719064       0.006
  -0.09554811 -0.09429668  0.02719063       0.006
  -0.06369876 -0.09429662  0.02719062       0.006
  -0.03184941 -0.09429656  0.02719061       0.006
  -0.00000003 -0.06286430  0.02719081       0.006
   0.03184932 -0.06286424  0.02719080       0.006
   0.06369867 -0.06286418  0.02719079       0.006
   0.09554802 -0.06286412  0.02719078       0.006
   0.12739737 -0.06286406  0.02719077       0.006
   0.15924672 -0.06286400  0.02719076       0.006
  -0.15924678 -0.06286460  0.02719086       0.006
  -0.12739743 -0.06286454  0.02719085       0.006
  -0.09554808 -0.06286448  0.02719084       0.006
  -0.06369873 -0.06286442  0.02719083       0.006
  -0.03184938 -0.06286436  0.02719082       0.006
  -0.00000000 -0.03143210  0.02719102       0.006
   0.03184935 -0.03143204  0.02719101       0.006
   0.06369870 -0.03143198  0.02719100       0.006
   0.09554805 -0.03143192  0.02719099       0.006
   0.12739740 -0.03143186  0.02719098       0.006
   0.15924675 -0.03143180  0.02719097       0.006
  -0.15924675 -0.03143239  0.02719108       0.006
  -0.12739740 -0.03143233  0.02719106       0.006
  -0.09554805 -0.03143227  0.02719105       0.006
  -0.06369870 -0.03143221  0.02719104       0.006
  -0.03184935 -0.03143216  0.02719103       0.006
   0.00000004  0.00000021  0.05438247       0.003
   0.03184939  0.00000027  0.05438246       0.006
   0.06369874  0.00000033  0.05438245       0.006
   0.09554809  0.00000039  0.05438244       0.006
   0.12739744  0.00000045  0.05438243       0.006
   0.15924679  0.00000051  0.05438241       0.006
   0.00000007  0.03143242  0.05438268       0.006
   0.03184942  0.03143248  0.05438267       0.006
   0.06369877  0.03143254  0.05438266       0.006
   0.09554812  0.03143259  0.05438265       0.006
   0.12739747  0.03143265  0.05438264       0.006
   0.15924682  0.03143271  0.05438262       0.006
  -0.15924668  0.03143212  0.05438273       0.006
  -0.12739733  0.03143218  0.05438272       0.006
  -0.09554798  0.03143224  0.05438271       0.006
  -0.06369863  0.03143230  0.05438270       0.006
  -0.03184928  0.03143236  0.05438269       0.006
   0.00000010  0.06286462  0.05438289       0.006
   0.03184945  0.06286468  0.05438288       0.006
   0.06369880  0.06286474  0.05438287       0.006
   0.09554815  0.06286480  0.05438286       0.006
   0.12739750  0.06286486  0.05438285       0.006
   0.15924685  0.06286492  0.05438283       0.006
  -0.15924665  0.06286432  0.05438294       0.006
  -0.12739730  0.06286438  0.05438293       0.006
  -0.09554795  0.06286444  0.05438292       0.006
  -0.06369860  0.06286450  0.05438291       0.006
  -0.03184925  0.06286456  0.05438290       0.006
   0.00000012  0.09429682  0.05438310       0.006
   0.03184947  0.09429688  0.05438309       0.006
   0.06369882  0.09429694  0.05438308       0.006
   0.09554817  0.09429700  0.05438307       0.006
   0.12739752  0.09429706  0.05438306       0.006
   0.15924687  0.09429712  0.05438304       0.006
  -0.15924663  0.09429653  0.05438315       0.006
  -0.12739728  0.09429659  0.05438314       0.006
  -0.09554793  0.09429665  0.05438313       0.006
  -0.06369858  0.09429671  0.05438312       0.006
  -0.03184923  0.09429676  0.05438311       0.006
 
 k-points in reciprocal lattice and weights: read from INCAR                         
   0.00000000  0.00000000  0.00000000       0.003
   0.09090909  0.00000000 -0.00000000       0.006
   0.18181818  0.00000000 -0.00000000       0.006
   0.27272727 -0.00000000  0.00000000       0.006
   0.36363636  0.00000000 -0.00000000       0.006
   0.45454545  0.00000000  0.00000000       0.006
   0.00000000  0.14285714  0.00000000       0.006
   0.09090909  0.14285714 -0.00000000       0.006
   0.18181818  0.14285714  0.00000000       0.006
   0.27272727  0.14285714 -0.00000000       0.006
   0.36363636  0.14285714  0.00000000       0.006
   0.45454545  0.14285714  0.00000000       0.006
  -0.45454545  0.14285714  0.00000000       0.006
  -0.36363636  0.14285714  0.00000000       0.006
  -0.27272727  0.14285714  0.00000000       0.006
  -0.18181818  0.14285714  0.00000000       0.006
  -0.09090909  0.14285714  0.00000000       0.006
  -0.00000000  0.28571429  0.00000000       0.006
   0.09090909  0.28571429  0.00000000       0.006
   0.18181818  0.28571429  0.00000000       0.006
   0.27272727  0.28571429  0.00000000       0.006
   0.36363636  0.28571429  0.00000000       0.006
   0.45454545  0.28571429  0.00000000       0.006
  -0.45454545  0.28571429 -0.00000000       0.006
  -0.36363636  0.28571429  0.00000000       0.006
  -0.27272727  0.28571429  0.00000000       0.006
  -0.18181818  0.28571429  0.00000000       0.006
  -0.09090909  0.28571429  0.00000000       0.006
  -0.00000000  0.42857143 -0.00000000       0.006
   0.09090909  0.42857143  0.00000000       0.006
   0.18181818  0.42857143 -0.00000000       0.006
   0.27272727  0.42857143 -0.00000000       0.006
   0.36363636  0.42857143 -0.00000000       0.006
   0.45454545  0.42857143  0.00000000       0.006
  -0.45454545  0.42857143 -0.00000000       0.006
  -0.36363636  0.42857143 -0.00000000       0.006
  -0.27272727  0.42857143  0.00000000       0.006
  -0.18181818  0.42857143  0.00000000       0.006
  -0.09090909  0.42857143 -0.00000000       0.006
  -0.00000000  0.00000000  0.25000000       0.006
   0.09090909  0.00000000  0.25000000       0.006
   0.18181818  0.00000000  0.25000000       0.006
   0.27272727  0.00000000  0.25000000       0.006
   0.36363636 -0.00000000  0.25000000       0.006
   0.45454545  0.00000000  0.25000000       0.006
  -0.45454545  0.00000000  0.25000000       0.006
  -0.36363636 -0.00000000  0.25000000       0.006
  -0.27272727  0.00000000  0.25000000       0.006
  -0.18181818  0.00000000  0.25000000       0.006
  -0.09090909  0.00000000  0.25000000       0.006
  -0.00000000  0.14285714  0.25000000       0.006
   0.09090909  0.14285714  0.25000000       0.006
   0.18181818  0.14285714  0.25000000       0.006
   0.27272727  0.14285714  0.25000000       0.006
   0.36363636  0.14285714  0.25000000       0.006
   0.45454545  0.14285714  0.25000000       0.006
  -0.45454545  0.14285714  0.25000000       0.006
  -0.36363636  0.14285714  0.25000000       0.006
  -0.27272727  0.14285714  0.25000000       0.006
  -0.18181818  0.14285714  0.25000000       0.006
  -0.09090909  0.14285714  0.25000000       0.006
  -0.00000000  0.28571429  0.25000000       0.006
   0.09090909  0.28571429  0.25000000       0.006
   0.18181818  0.28571429  0.25000000       0.006
   0.27272727  0.28571429  0.25000000       0.006
   0.36363636  0.28571429  0.25000000       0.006
   0.45454545  0.28571429  0.25000000       0.006
  -0.45454545  0.28571429  0.25000000       0.006
  -0.36363636  0.28571429  0.25000000       0.006
  -0.27272727  0.28571429  0.25000000       0.006
  -0.18181818  0.28571429  0.25000000       0.006
  -0.09090909  0.28571429  0.25000000       0.006
  -0.00000000  0.42857143  0.25000000       0.006
   0.09090909  0.42857143  0.25000000       0.006
   0.18181818  0.42857143  0.25000000       0.006
   0.27272727  0.42857143  0.25000000       0.006
   0.36363636  0.42857143  0.25000000       0.006
   0.45454545  0.42857143  0.25000000       0.006
  -0.45454545  0.42857143  0.25000000       0.006
  -0.36363636  0.42857143  0.25000000       0.006
  -0.27272727  0.42857143  0.25000000       0.006
  -0.18181818  0.42857143  0.25000000       0.006
  -0.09090909  0.42857143  0.25000000       0.006
   0.00000000 -0.42857143  0.25000000       0.006
   0.09090909 -0.42857143  0.25000000       0.006
   0.18181818 -0.42857143  0.25000000       0.006
   0.27272727 -0.42857143  0.25000000       0.006
   0.36363636 -0.42857143  0.25000000       0.006
   0.45454545 -0.42857143  0.25000000       0.006
  -0.45454545 -0.42857143  0.25000000       0.006
  -0.36363636 -0.42857143  0.25000000       0.006
  -0.27272727 -0.42857143  0.25000000       0.006
  -0.18181818 -0.42857143  0.25000000       0.006
  -0.09090909 -0.42857143  0.25000000       0.006
   0.00000000 -0.28571429  0.25000000       0.006
   0.09090909 -0.28571429  0.25000000       0.006
   0.18181818 -0.28571429  0.25000000       0.006
   0.27272727 -0.28571429  0.25000000       0.006
   0.36363636 -0.28571429  0.25000000       0.006
   0.45454545 -0.28571429  0.25000000       0.006
  -0.45454545 -0.28571429  0.25000000       0.006
  -0.36363636 -0.28571429  0.25000000       0.006
  -0.27272727 -0.28571429  0.25000000       0.006
  -0.18181818 -0.28571429  0.25000000       0.006
  -0.09090909 -0.28571429  0.25000000       0.006
   0.00000000 -0.14285714  0.25000000       0.006
   0.09090909 -0.14285714  0.25000000       0.006
   0.18181818 -0.14285714  0.25000000       0.006
   0.27272727 -0.14285714  0.25000000       0.006
   0.36363636 -0.14285714  0.25000000       0.006
   0.45454545 -0.14285714  0.25000000       0.006
  -0.45454545 -0.14285714  0.25000000       0.006
  -0.36363636 -0.14285714  0.25000000       0.006
  -0.27272727 -0.14285714  0.25000000       0.006
  -0.18181818 -0.14285714  0.25000000       0.006
  -0.09090909 -0.14285714  0.25000000       0.006
  -0.00000000  0.00000000  0.50000000       0.003
   0.09090909  0.00000000  0.50000000       0.006
   0.18181818  0.00000000  0.50000000       0.006
   0.27272727  0.00000000  0.50000000       0.006
   0.36363636  0.00000000  0.50000000       0.006
   0.45454545  0.00000000  0.50000000       0.006
  -0.00000000  0.14285714  0.50000000       0.006
   0.09090909  0.14285714  0.50000000       0.006
   0.18181818  0.14285714  0.50000000       0.006
   0.27272727  0.14285714  0.50000000       0.006
   0.36363636  0.14285714  0.50000000       0.006
   0.45454545  0.14285714  0.50000000       0.006
  -0.45454545  0.14285714  0.50000000       0.006
  -0.36363636  0.14285714  0.50000000       0.006
  -0.27272727  0.14285714  0.50000000       0.006
  -0.18181818  0.14285714  0.50000000       0.006
  -0.09090909  0.14285714  0.50000000       0.006
  -0.00000000  0.28571429  0.50000000       0.006
   0.09090909  0.28571429  0.50000000       0.006
   0.18181818  0.28571429  0.50000000       0.006
   0.27272727  0.28571429  0.50000000       0.006
   0.36363636  0.28571429  0.50000000       0.006
   0.45454545  0.28571429  0.50000000       0.006
  -0.45454545  0.28571429  0.50000000       0.006
  -0.36363636  0.28571429  0.50000000       0.006
  -0.27272727  0.28571429  0.50000000       0.006
  -0.18181818  0.28571429  0.50000000       0.006
  -0.09090909  0.28571429  0.50000000       0.006
  -0.00000000  0.42857143  0.50000000       0.006
   0.09090909  0.42857143  0.50000000       0.006
   0.18181818  0.42857143  0.50000000       0.006
   0.27272727  0.42857143  0.50000000       0.006
   0.36363636  0.42857143  0.50000000       0.006
   0.45454545  0.42857143  0.50000000       0.006
  -0.45454545  0.42857143  0.50000000       0.006
  -0.36363636  0.42857143  0.50000000       0.006
  -0.27272727  0.42857143  0.50000000       0.006
  -0.18181818  0.42857143  0.50000000       0.006
  -0.09090909  0.42857143  0.50000000       0.006
 
 position of ions in fractional coordinates (direct lattice) 
   0.25000138  0.03048329  0.86460731
   0.75000181  0.96951742  0.13539271
   0.75000058  0.53049089  0.63539220
   0.25000127  0.46951019  0.36460838
   0.24999900  0.71262490  0.53392601
   0.75000019  0.21261304  0.96607129
   0.24999749  0.78738770  0.03392861
   0.74999758  0.28737644  0.46607476
   0.25000141  0.17561156  0.22189687
   0.24999910  0.32439125  0.72189599
   0.75000086  0.67560644  0.27810335
   0.74999934  0.82438787  0.77810351
 
 position of ions in cartesian coordinates  (Angst):
   0.71359297  0.13849065  7.94931940
   2.14075752  4.40637808  1.24480048
   2.14075918  2.41100278  5.84187351
   0.71358747  2.13386766  3.35225145
   0.71357942  3.23879642  4.90897706
   2.14076173  0.96625007  8.88218895
   0.71357299  3.57861877  0.31192976
   2.14075217  1.30607519  4.28514960
   0.71358991  0.79812789  2.04014716
   0.71358355  1.47429037  6.63720631
   2.14075769  3.07056467  2.55690731
   2.14075360  3.74673501  7.15397599
 


--------------------------------------------------------------------------------------------------------


 k-point  1 :   0.0000 0.0000 0.0000  plane waves:    3213
 k-point  2 :   0.0909 0.0000-0.0000  plane waves:    3217
 k-point  3 :   0.1818 0.0000-0.0000  plane waves:    3209
 k-point  4 :   0.2727-0.0000 0.0000  plane waves:    3195
 k-point  5 :   0.3636 0.0000-0.0000  plane waves:    3214
 k-point  6 :   0.4545 0.0000 0.0000  plane waves:    3220
 k-point  7 :   0.0000 0.1429 0.0000  plane waves:    3207
 k-point  8 :   0.0909 0.1429-0.0000  plane waves:    3216
 k-point  9 :   0.1818 0.1429 0.0000  plane waves:    3215
 k-point 10 :   0.2727 0.1429-0.0000  plane waves:    3203
 k-point 11 :   0.3636 0.1429 0.0000  plane waves:    3202
 k-point 12 :   0.4545 0.1429 0.0000  plane waves:    3222
 k-point 13 :  -0.4545 0.1429 0.0000  plane waves:    3222
 k-point 14 :  -0.3636 0.1429 0.0000  plane waves:    3202
 k-point 15 :  -0.2727 0.1429 0.0000  plane waves:    3203
 k-point 16 :  -0.1818 0.1429 0.0000  plane waves:    3215
 k-point 17 :  -0.0909 0.1429 0.0000  plane waves:    3215
 k-point 18 :  -0.0000 0.2857 0.0000  plane waves:    3223
 k-point 19 :   0.0909 0.2857 0.0000  plane waves:    3214
 k-point 20 :   0.1818 0.2857 0.0000  plane waves:    3212
 k-point 21 :   0.2727 0.2857 0.0000  plane waves:    3214
 k-point 22 :   0.3636 0.2857 0.0000  plane waves:    3213
 k-point 23 :   0.4545 0.2857 0.0000  plane waves:    3204
 k-point 24 :  -0.4545 0.2857-0.0000  plane waves:    3204
 k-point 25 :  -0.3636 0.2857 0.0000  plane waves:    3213
 k-point 26 :  -0.2727 0.2857 0.0000  plane waves:    3214
 k-point 27 :  -0.1818 0.2857 0.0000  plane waves:    3212
 k-point 28 :  -0.0909 0.2857 0.0000  plane waves:    3214
 k-point 29 :  -0.0000 0.4286-0.0000  plane waves:    3223
 k-point 30 :   0.0909 0.4286 0.0000  plane waves:    3213
 k-point 31 :   0.1818 0.4286-0.0000  plane waves:    3224
 k-point 32 :   0.2727 0.4286-0.0000  plane waves:    3209
 k-point 33 :   0.3636 0.4286-0.0000  plane waves:    3195
 k-point 34 :   0.4545 0.4286 0.0000  plane waves:    3175
 k-point 35 :  -0.4545 0.4286-0.0000  plane waves:    3175
 k-point 36 :  -0.3636 0.4286-0.0000  plane waves:    3195
 k-point 37 :  -0.2727 0.4286 0.0000  plane waves:    3209
 k-point 38 :  -0.1818 0.4286 0.0000  plane waves:    3224
 k-point 39 :  -0.0909 0.4286-0.0000  plane waves:    3213
 k-point 40 :  -0.0000 0.0000 0.2500  plane waves:    3202
 k-point 41 :   0.0909 0.0000 0.2500  plane waves:    3223
 k-point 42 :   0.1818 0.0000 0.2500  plane waves:    3216
 k-point 43 :   0.2727 0.0000 0.2500  plane waves:    3204
 k-point 44 :   0.3636-0.0000 0.2500  plane waves:    3226
 k-point 45 :   0.4545 0.0000 0.2500  plane waves:    3234
 k-point 46 :  -0.4545 0.0000 0.2500  plane waves:    3234
 k-point 47 :  -0.3636-0.0000 0.2500  plane waves:    3226
 k-point 48 :  -0.2727 0.0000 0.2500  plane waves:    3204
 k-point 49 :  -0.1818 0.0000 0.2500  plane waves:    3216
 k-point 50 :  -0.0909 0.0000 0.2500  plane waves:    3223
 k-point 51 :  -0.0000 0.1429 0.2500  plane waves:    3209
 k-point 52 :   0.0909 0.1429 0.2500  plane waves:    3222
 k-point 53 :   0.1818 0.1429 0.2500  plane waves:    3210
 k-point 54 :   0.2727 0.1429 0.2500  plane waves:    3214
 k-point 55 :   0.3636 0.1429 0.2500  plane waves:    3209
 k-point 56 :   0.4545 0.1429 0.2500  plane waves:    3223
 k-point 57 :  -0.4545 0.1429 0.2500  plane waves:    3223
 k-point 58 :  -0.3636 0.1429 0.2500  plane waves:    3209
 k-point 59 :  -0.2727 0.1429 0.2500  plane waves:    3214
 k-point 60 :  -0.1818 0.1429 0.2500  plane waves:    3210
 k-point 61 :  -0.0909 0.1429 0.2500  plane waves:    3222
 k-point 62 :  -0.0000 0.2857 0.2500  plane waves:    3223
 k-point 63 :   0.0909 0.2857 0.2500  plane waves:    3220
 k-point 64 :   0.1818 0.2857 0.2500  plane waves:    3212
 k-point 65 :   0.2727 0.2857 0.2500  plane waves:    3200
 k-point 66 :   0.3636 0.2857 0.2500  plane waves:    3208
 k-point 67 :   0.4545 0.2857 0.2500  plane waves:    3214
 k-point 68 :  -0.4545 0.2857 0.2500  plane waves:    3214
 k-point 69 :  -0.3636 0.2857 0.2500  plane waves:    3208
 k-point 70 :  -0.2727 0.2857 0.2500  plane waves:    3200
 k-point 71 :  -0.1818 0.2857 0.2500  plane waves:    3212
 k-point 72 :  -0.0909 0.2857 0.2500  plane waves:    3220
 k-point 73 :  -0.0000 0.4286 0.2500  plane waves:    3220
 k-point 74 :   0.0909 0.4286 0.2500  plane waves:    3216
 k-point 75 :   0.1818 0.4286 0.2500  plane waves:    3217
 k-point 76 :   0.2727 0.4286 0.2500  plane waves:    3208
 k-point 77 :   0.3636 0.4286 0.2500  plane waves:    3194
 k-point 78 :   0.4545 0.4286 0.2500  plane waves:    3183
 k-point 79 :  -0.4545 0.4286 0.2500  plane waves:    3183
 k-point 80 :  -0.3636 0.4286 0.2500  plane waves:    3194
 k-point 81 :  -0.2727 0.4286 0.2500  plane waves:    3208
 k-point 82 :  -0.1818 0.4286 0.2500  plane waves:    3217
 k-point 83 :  -0.0909 0.4286 0.2500  plane waves:    3216
 k-point 84 :   0.0000-0.4286 0.2500  plane waves:    3220
 k-point 85 :   0.0909-0.4286 0.2500  plane waves:    3216
 k-point 86 :   0.1818-0.4286 0.2500  plane waves:    3217
 k-point 87 :   0.2727-0.4286 0.2500  plane waves:    3208
 k-point 88 :   0.3636-0.4286 0.2500  plane waves:    3194
 k-point 89 :   0.4545-0.4286 0.2500  plane waves:    3183
 k-point 90 :  -0.4545-0.4286 0.2500  plane waves:    3183
 k-point 91 :  -0.3636-0.4286 0.2500  plane waves:    3194
 k-point 92 :  -0.2727-0.4286 0.2500  plane waves:    3207
 k-point 93 :  -0.1818-0.4286 0.2500  plane waves:    3217
 k-point 94 :  -0.0909-0.4286 0.2500  plane waves:    3217
 k-point 95 :   0.0000-0.2857 0.2500  plane waves:    3223
 k-point 96 :   0.0909-0.2857 0.2500  plane waves:    3220
 k-point 97 :   0.1818-0.2857 0.2500  plane waves:    3212
 k-point 98 :   0.2727-0.2857 0.2500  plane waves:    3200
 k-point 99 :   0.3636-0.2857 0.2500  plane waves:    3208
 k-point ** :   0.4545-0.2857 0.2500  plane waves:    3214
 k-point ** :  -0.4545-0.2857 0.2500  plane waves:    3214
 k-point ** :  -0.3636-0.2857 0.2500  plane waves:    3208
 k-point ** :  -0.2727-0.2857 0.2500  plane waves:    3200
 k-point ** :  -0.1818-0.2857 0.2500  plane waves:    3212
 k-point ** :  -0.0909-0.2857 0.2500  plane waves:    3220
 k-point ** :   0.0000-0.1429 0.2500  plane waves:    3209
 k-point ** :   0.0909-0.1429 0.2500  plane waves:    3222
 k-point ** :   0.1818-0.1429 0.2500  plane waves:    3210
 k-point ** :   0.2727-0.1429 0.2500  plane waves:    3214
 k-point ** :   0.3636-0.1429 0.2500  plane waves:    3209
 k-point ** :   0.4545-0.1429 0.2500  plane waves:    3223
 k-point ** :  -0.4545-0.1429 0.2500  plane waves:    3223
 k-point ** :  -0.3636-0.1429 0.2500  plane waves:    3209
 k-point ** :  -0.2727-0.1429 0.2500  plane waves:    3214
 k-point ** :  -0.1818-0.1429 0.2500  plane waves:    3210
 k-point ** :  -0.0909-0.1429 0.2500  plane waves:    3222
 k-point ** :  -0.0000 0.0000 0.5000  plane waves:    3222
 k-point ** :   0.0909 0.0000 0.5000  plane waves:    3230
 k-point ** :   0.1818 0.0000 0.5000  plane waves:    3230
 k-point ** :   0.2727 0.0000 0.5000  plane waves:    3212
 k-point ** :   0.3636 0.0000 0.5000  plane waves:    3220
 k-point ** :   0.4545 0.0000 0.5000  plane waves:    3228
 k-point ** :  -0.0000 0.1429 0.5000  plane waves:    3226
 k-point ** :   0.0909 0.1429 0.5000  plane waves:    3232
 k-point ** :   0.1818 0.1429 0.5000  plane waves:    3216
 k-point ** :   0.2727 0.1429 0.5000  plane waves:    3206
 k-point ** :   0.3636 0.1429 0.5000  plane waves:    3208
 k-point ** :   0.4545 0.1429 0.5000  plane waves:    3222
 k-point ** :  -0.4545 0.1429 0.5000  plane waves:    3222
 k-point ** :  -0.3636 0.1429 0.5000  plane waves:    3208
 k-point ** :  -0.2727 0.1429 0.5000  plane waves:    3206
 k-point ** :  -0.1818 0.1429 0.5000  plane waves:    3216
 k-point ** :  -0.0909 0.1429 0.5000  plane waves:    3232
 k-point ** :  -0.0000 0.2857 0.5000  plane waves:    3220
 k-point ** :   0.0909 0.2857 0.5000  plane waves:    3214
 k-point ** :   0.1818 0.2857 0.5000  plane waves:    3216
 k-point ** :   0.2727 0.2857 0.5000  plane waves:    3208
 k-point ** :   0.3636 0.2857 0.5000  plane waves:    3204
 k-point ** :   0.4545 0.2857 0.5000  plane waves:    3204
 k-point ** :  -0.4545 0.2857 0.5000  plane waves:    3204
 k-point ** :  -0.3636 0.2857 0.5000  plane waves:    3204
 k-point ** :  -0.2727 0.2857 0.5000  plane waves:    3208
 k-point ** :  -0.1818 0.2857 0.5000  plane waves:    3216
 k-point ** :  -0.0909 0.2857 0.5000  plane waves:    3214
 k-point ** :  -0.0000 0.4286 0.5000  plane waves:    3222
 k-point ** :   0.0909 0.4286 0.5000  plane waves:    3218
 k-point ** :   0.1818 0.4286 0.5000  plane waves:    3218
 k-point ** :   0.2727 0.4286 0.5000  plane waves:    3210
 k-point ** :   0.3636 0.4286 0.5000  plane waves:    3184
 k-point ** :   0.4545 0.4286 0.5000  plane waves:    3180
 k-point ** :  -0.4545 0.4286 0.5000  plane waves:    3180
 k-point ** :  -0.3636 0.4286 0.5000  plane waves:    3184
 k-point ** :  -0.2727 0.4286 0.5000  plane waves:    3210
 k-point ** :  -0.1818 0.4286 0.5000  plane waves:    3218
 k-point ** :  -0.0909 0.4286 0.5000  plane waves:    3218

 maximum and minimum number of plane-waves per node :       826      778

 maximum number of plane-waves:      3234
 maximum index in each direction: 
   IXMAX=    5   IYMAX=    8   IZMAX=   17
   IXMIN=   -5   IYMIN=   -8   IZMIN=  -17


 parallel 3D FFT for wavefunctions:
    minimum data exchange during FFTs selected (reduces bandwidth)
 parallel 3D FFT for charge:
    minimum data exchange during FFTs selected (reduces bandwidth)


 total amount of memory used by VASP MPI-rank0   266672. kBytes
=======================================================================

   base      :      30000. kBytes
   nonl-proj :      37120. kBytes
   fftplans  :       1491. kBytes
   grid      :       5125. kBytes
   one-center:         93. kBytes
   wavefun   :     192843. kBytes
 
     INWAV:  cpu time    3.2609: real time    3.2661
 Broyden mixing: mesh for mixing (old mesh)
   NGX = 11   NGY = 17   NGZ = 35
  (NGX  = 48   NGY  = 72   NGZ  =140)
  gives a total of   6545 points

 charge density for first step will be calculated from the start-wavefunctions


--------------------------------------------------------------------------------------------------------


 Maximum index for augmentation-charges          960 (set IRDMAX)


--------------------------------------------------------------------------------------------------------


 initial charge from wavefunction
 First call to EWALD:  gamma=   0.360
 Maximum number of real-space cells 4x 3x 2
 Maximum number of reciprocal cells 2x 3x 5

    FEWALD:  cpu time    0.0013: real time    0.0023


--------------------------------------- Iteration      1(   1)  ---------------------------------------


    POTLOK:  cpu time    0.1183: real time    0.1200
    SETDIJ:  cpu time    0.8033: real time    0.8061
    TRIAL :  cpu time   23.4167: real time   23.5109
    CORREC:  cpu time   11.4095: real time   11.5388
    CHARGE:  cpu time    4.2029: real time    4.2141
    --------------------------------------------
      LOOP:  cpu time   39.9891: real time   40.2478

 eigenvalue-minimisations  :     0
 total energy-change (2. order) : 0.1726378E+03  (-0.1694575E+03)
 number of electron     100.0000014 magnetization       0.0000017
 augmentation part       34.8023845 magnetization       0.0000008

 Free energy of the ion-electron system (eV)
  ---------------------------------------------------
  alpha Z        PSCENC =       466.41413257
  Ewald energy   TEWEN  =     -7597.90601683
  -Hartree energ DENC   =     -3483.66202618
  -exchange      EXHF   =         0.00000000
  -V(xc)+E(xc)   XCENC  =       591.52729278
  PAW double counting   =     16746.52880383   -17027.08748525
  entropy T*S    EENTRO =        -0.00013083
  eigenvalues    EBANDS =     -1083.08331034
  atomic energy  EATOM  =     11559.90638050
  ---------------------------------------------------
  free energy    TOTEN  =       172.63777107 eV

  energy without entropy =      172.63790191  energy(sigma->0) =      172.63783649


--------------------------------------------------------------------------------------------------------




--------------------------------------- Iteration      1(   2)  ---------------------------------------


    POTLOK:  cpu time    0.0649: real time    0.0659
    SETDIJ:  cpu time    0.7918: real time    0.7929
    TRIAL :  cpu time   22.4708: real time   22.5385
    CORREC:  cpu time   12.1451: real time   12.1800
    CHARGE:  cpu time    4.5048: real time    4.5147
    --------------------------------------------
      LOOP:  cpu time   39.9785: real time   40.0930

 eigenvalue-minimisations  :     0
 total energy-change (2. order) :-0.1694971E+03  (-0.8362438E+02)
 number of electron     100.0000013 magnetization      -0.0000021
 augmentation part       33.0055486 magnetization      -0.0000004

 Free energy of the ion-electron system (eV)
  ---------------------------------------------------
  alpha Z        PSCENC =       466.41413257
  Ewald energy   TEWEN  =     -7597.90601683
  -Hartree energ DENC   =     -3623.14534802
  -exchange      EXHF   =         0.00000000
  -V(xc)+E(xc)   XCENC  =       594.68870924
  PAW double counting   =     15310.74330592   -15615.03640198
  entropy T*S    EENTRO =        -0.00044056
  eigenvalues    EBANDS =     -1092.52399451
  atomic energy  EATOM  =     11559.90638050
  ---------------------------------------------------
  free energy    TOTEN  =         3.14063605 eV

  energy without entropy =        3.14107661  energy(sigma->0) =        3.14085633


--------------------------------------------------------------------------------------------------------




--------------------------------------- Iteration      1(   3)  ---------------------------------------


    POTLOK:  cpu time    0.0686: real time    0.0695
    SETDIJ:  cpu time    0.8369: real time    0.8465
    TRIAL :  cpu time   23.1926: real time   23.3064
    CORREC:  cpu time   12.2361: real time   12.2861
    CHARGE:  cpu time    4.5625: real time    4.5691
    --------------------------------------------
      LOOP:  cpu time   40.8980: real time   41.0788

 eigenvalue-minimisations  :     0
 total energy-change (2. order) :-0.8389358E+02  (-0.2547826E+02)
 number of electron     100.0000013 magnetization      -0.0000109
 augmentation part       33.4867112 magnetization      -0.0000048

 Free energy of the ion-electron system (eV)
  ---------------------------------------------------
  alpha Z        PSCENC =       466.41413257
  Ewald energy   TEWEN  =     -7597.90601683
  -Hartree energ DENC   =     -3421.83830589
  -exchange      EXHF   =         0.00000000
  -V(xc)+E(xc)   XCENC  =       585.76735199
  PAW double counting   =     14158.87225479   -14426.42890677
  entropy T*S    EENTRO =        -0.00044821
  eigenvalues    EBANDS =     -1405.53939367
  atomic energy  EATOM  =     11559.90638050
  ---------------------------------------------------
  free energy    TOTEN  =       -80.75294387 eV

  energy without entropy =      -80.75249566  energy(sigma->0) =      -80.75271977


--------------------------------------------------------------------------------------------------------




--------------------------------------- Iteration      1(   4)  ---------------------------------------


    POTLOK:  cpu time    0.0738: real time    0.0748
    SETDIJ:  cpu time    0.8568: real time    0.8581
    TRIAL :  cpu time   23.9424: real time   24.0373
    CORREC:  cpu time   12.1864: real time   12.2148
    CHARGE:  cpu time    4.4138: real time    4.4295
    --------------------------------------------
      LOOP:  cpu time   41.4739: real time   41.6271

 eigenvalue-minimisations  :     0
 total energy-change (2. order) :-0.2559568E+02  (-0.1310526E+02)
 number of electron     100.0000014 magnetization      -0.0000019
 augmentation part       33.9202506 magnetization      -0.0000010

 Free energy of the ion-electron system (eV)
  ---------------------------------------------------
  alpha Z        PSCENC =       466.41413257
  Ewald energy   TEWEN  =     -7597.90601683
  -Hartree energ DENC   =     -3503.06721305
  -exchange      EXHF   =         0.00000000
  -V(xc)+E(xc)   XCENC  =       590.61548341
  PAW double counting   =     13416.50377007   -13689.37180029
  entropy T*S    EENTRO =        -0.00022918
  eigenvalues    EBANDS =     -1349.44290910
  atomic energy  EATOM  =     11559.90638050
  ---------------------------------------------------
  free energy    TOTEN  =      -106.34862094 eV

  energy without entropy =     -106.34839175  energy(sigma->0) =     -106.34850634


--------------------------------------------------------------------------------------------------------




--------------------------------------- Iteration      1(   5)  ---------------------------------------


    POTLOK:  cpu time    0.0654: real time    0.0654
    SETDIJ:  cpu time    0.8291: real time    0.8291
    TRIAL :  cpu time   23.1744: real time   23.1806
    CORREC:  cpu time   12.2086: real time   12.2160
    CHARGE:  cpu time    4.4646: real time    4.4655
    --------------------------------------------
      LOOP:  cpu time   40.7427: real time   40.7582

 eigenvalue-minimisations  :     0
 total energy-change (2. order) :-0.1333277E+02  (-0.7639191E+01)
 number of electron     100.0000014 magnetization       0.0000014
 augmentation part       33.6349700 magnetization       0.0000004

 Free energy of the ion-electron system (eV)
  ---------------------------------------------------
  alpha Z        PSCENC =       466.41413257
  Ewald energy   TEWEN  =     -7597.90601683
  -Hartree energ DENC   =     -3556.06636982
  -exchange      EXHF   =         0.00000000
  -V(xc)+E(xc)   XCENC  =       594.43721671
  PAW double counting   =     13063.91719896   -13341.09603622
  entropy T*S    EENTRO =        -0.00009948
  eigenvalues    EBANDS =     -1309.28766565
  atomic energy  EATOM  =     11559.90638050
  ---------------------------------------------------
  free energy    TOTEN  =      -119.68138898 eV

  energy without entropy =     -119.68128949  energy(sigma->0) =     -119.68133923


--------------------------------------------------------------------------------------------------------




--------------------------------------- Iteration      1(   6)  ---------------------------------------


    POTLOK:  cpu time    0.0677: real time    0.0694
    SETDIJ:  cpu time    0.8556: real time    0.8557
    TRIAL :  cpu time   23.7011: real time   23.7088
    CORREC:  cpu time   11.2131: real time   11.2147
    CHARGE:  cpu time    4.1869: real time    4.1871
    --------------------------------------------
      LOOP:  cpu time   40.0257: real time   40.0371

 eigenvalue-minimisations  :     0
 total energy-change (2. order) :-0.5928137E+01  (-0.2209537E+01)
 number of electron     100.0000014 magnetization      -0.0000000
 augmentation part       33.7780719 magnetization      -0.0000006

 Free energy of the ion-electron system (eV)
  ---------------------------------------------------
  alpha Z        PSCENC =       466.41413257
  Ewald energy   TEWEN  =     -7597.90601683
  -Hartree energ DENC   =     -3502.53537414
  -exchange      EXHF   =         0.00000000
  -V(xc)+E(xc)   XCENC  =       592.55519530
  PAW double counting   =     13014.34172992   -13285.55323787
  entropy T*S    EENTRO =        -0.00000000
  eigenvalues    EBANDS =     -1372.83223644
  atomic energy  EATOM  =     11559.90638050
  ---------------------------------------------------
  free energy    TOTEN  =      -125.60952646 eV

  energy without entropy =     -125.60952646  energy(sigma->0) =     -125.60952646


--------------------------------------------------------------------------------------------------------




--------------------------------------- Iteration      1(   7)  ---------------------------------------


    POTLOK:  cpu time    0.0628: real time    0.0632
    SETDIJ:  cpu time    0.7932: real time    0.7932
    TRIAL :  cpu time   23.3778: real time   23.3835
    CORREC:  cpu time   12.0893: real time   12.0929
    CHARGE:  cpu time    4.4177: real time    4.4178
    --------------------------------------------
      LOOP:  cpu time   40.7416: real time   40.7515

 eigenvalue-minimisations  :     0
 total energy-change (2. order) :-0.2247988E+01  (-0.1540869E+01)
 number of electron     100.0000014 magnetization      -0.0000000
 augmentation part       33.7868694 magnetization      -0.0000002

 Free energy of the ion-electron system (eV)
  ---------------------------------------------------
  alpha Z        PSCENC =       466.41413257
  Ewald energy   TEWEN  =     -7597.90601683
  -Hartree energ DENC   =     -3523.98233626
  -exchange      EXHF   =         0.00000000
  -V(xc)+E(xc)   XCENC  =       592.60765004
  PAW double counting   =     13152.06116806   -13425.45963461
  entropy T*S    EENTRO =        -0.00000000
  eigenvalues    EBANDS =     -1351.49885793
  atomic energy  EATOM  =     11559.90638050
  ---------------------------------------------------
  free energy    TOTEN  =      -127.85751446 eV

  energy without entropy =     -127.85751446  energy(sigma->0) =     -127.85751446


--------------------------------------------------------------------------------------------------------




--------------------------------------- Iteration      1(   8)  ---------------------------------------


    POTLOK:  cpu time    0.0658: real time    0.0658
    SETDIJ:  cpu time    0.8092: real time    0.8093
    TRIAL :  cpu time   23.5088: real time   23.5150
    CORREC:  cpu time   11.9812: real time   11.9876
    CHARGE:  cpu time    4.4446: real time    4.4448
    --------------------------------------------
      LOOP:  cpu time   40.8103: real time   40.8242

 eigenvalue-minimisations  :     0
 total energy-change (2. order) :-0.1539838E+01  (-0.7509505E+00)
 number of electron     100.0000014 magnetization      -0.0000000
 augmentation part       33.6880235 magnetization       0.0000002

 Free energy of the ion-electron system (eV)
  ---------------------------------------------------
  alpha Z        PSCENC =       466.41413257
  Ewald energy   TEWEN  =     -7597.90601683
  -Hartree energ DENC   =     -3534.58181370
  -exchange      EXHF   =         0.00000000
  -V(xc)+E(xc)   XCENC  =       592.96050645
  PAW double counting   =     13194.82252987   -13467.90323418
  entropy T*S    EENTRO =        -0.00000000
  eigenvalues    EBANDS =     -1343.10983750
  atomic energy  EATOM  =     11559.90638050
  ---------------------------------------------------
  free energy    TOTEN  =      -129.39735282 eV

  energy without entropy =     -129.39735282  energy(sigma->0) =     -129.39735282


--------------------------------------------------------------------------------------------------------




--------------------------------------- Iteration      1(   9)  ---------------------------------------


    POTLOK:  cpu time    0.0682: real time    0.0700
    SETDIJ:  cpu time    0.8323: real time    0.8323
    TRIAL :  cpu time   23.7397: real time   23.7468
    CORREC:  cpu time   11.5374: real time   11.5416
    CHARGE:  cpu time    4.4496: real time    4.4500
    --------------------------------------------
      LOOP:  cpu time   40.6288: real time   40.6421

 eigenvalue-minimisations  :     0
 total energy-change (2. order) :-0.7506831E+00  (-0.3717621E+00)
 number of electron     100.0000014 magnetization      -0.0000000
 augmentation part       33.6978787 magnetization       0.0000004

 Free energy of the ion-electron system (eV)
  ---------------------------------------------------
  alpha Z        PSCENC =       466.41413257
  Ewald energy   TEWEN  =     -7597.90601683
  -Hartree energ DENC   =     -3527.13486988
  -exchange      EXHF   =         0.00000000
  -V(xc)+E(xc)   XCENC  =       592.94300572
  PAW double counting   =     13169.21028129   -13440.30114685
  entropy T*S    EENTRO =        -0.00000000
  eigenvalues    EBANDS =     -1353.27980241
  atomic energy  EATOM  =     11559.90638050
  ---------------------------------------------------
  free energy    TOTEN  =      -130.14803589 eV

  energy without entropy =     -130.14803589  energy(sigma->0) =     -130.14803589


--------------------------------------------------------------------------------------------------------




--------------------------------------- Iteration      1(  10)  ---------------------------------------


    POTLOK:  cpu time    0.0649: real time    0.0649
    SETDIJ:  cpu time    0.8020: real time    0.8020
    TRIAL :  cpu time   21.3692: real time   21.3767
    CORREC:  cpu time   11.2093: real time   11.2124
    CHARGE:  cpu time    4.2595: real time    4.2595
    --------------------------------------------
      LOOP:  cpu time   37.7055: real time   37.7162

 eigenvalue-minimisations  :     0
 total energy-change (2. order) :-0.3719416E+00  (-0.1792902E+00)
 number of electron     100.0000014 magnetization      -0.0000000
 augmentation part       33.7351557 magnetization       0.0000003

 Free energy of the ion-electron system (eV)
  ---------------------------------------------------
  alpha Z        PSCENC =       466.41413257
  Ewald energy   TEWEN  =     -7597.90601683
  -Hartree energ DENC   =     -3528.00758407
  -exchange      EXHF   =         0.00000000
  -V(xc)+E(xc)   XCENC  =       592.87542810
  PAW double counting   =     13104.56177379   -13376.07440932
  entropy T*S    EENTRO =        -0.00000000
  eigenvalues    EBANDS =     -1352.28968227
  atomic energy  EATOM  =     11559.90638050
  ---------------------------------------------------
  free energy    TOTEN  =      -130.51997754 eV

  energy without entropy =     -130.51997754  energy(sigma->0) =     -130.51997754


--------------------------------------------------------------------------------------------------------




--------------------------------------- Iteration      1(  11)  ---------------------------------------


    POTLOK:  cpu time    0.0642: real time    0.0642
    SETDIJ:  cpu time    0.8073: real time    0.8073
    TRIAL :  cpu time   22.2724: real time   22.2781
    CORREC:  cpu time   11.5936: real time   11.5991
    CHARGE:  cpu time    4.2993: real time    4.3000
    --------------------------------------------
      LOOP:  cpu time   39.0383: real time   39.0501

 eigenvalue-minimisations  :     0
 total energy-change (2. order) :-0.1792384E+00  (-0.1033398E+00)
 number of electron     100.0000014 magnetization      -0.0000000
 augmentation part       33.7174542 magnetization       0.0000001

 Free energy of the ion-electron system (eV)
  ---------------------------------------------------
  alpha Z        PSCENC =       466.41413257
  Ewald energy   TEWEN  =     -7597.90601683
  -Hartree energ DENC   =     -3530.96014371
  -exchange      EXHF   =         0.00000000
  -V(xc)+E(xc)   XCENC  =       592.88173367
  PAW double counting   =     13062.02064034   -13334.38212081
  entropy T*S    EENTRO =        -0.00000000
  eigenvalues    EBANDS =     -1348.67382171
  atomic energy  EATOM  =     11559.90638050
  ---------------------------------------------------
  free energy    TOTEN  =      -130.69921598 eV

  energy without entropy =     -130.69921598  energy(sigma->0) =     -130.69921598


--------------------------------------------------------------------------------------------------------




--------------------------------------- Iteration      1(  12)  ---------------------------------------


    POTLOK:  cpu time    0.0657: real time    0.0664
    SETDIJ:  cpu time    0.8277: real time    0.8278
    TRIAL :  cpu time   22.5008: real time   22.5065
    CORREC:  cpu time   11.8528: real time   11.8618
    CHARGE:  cpu time    4.2935: real time    4.2937
    --------------------------------------------
      LOOP:  cpu time   39.5413: real time   39.5582

 eigenvalue-minimisations  :     0
 total energy-change (2. order) :-0.1031786E+00  (-0.5567274E-01)
 number of electron     100.0000014 magnetization      -0.0000000
 augmentation part       33.7142648 magnetization       0.0000001

 Free energy of the ion-electron system (eV)
  ---------------------------------------------------
  alpha Z        PSCENC =       466.41413257
  Ewald energy   TEWEN  =     -7597.90601683
  -Hartree energ DENC   =     -3527.42798339
  -exchange      EXHF   =         0.00000000
  -V(xc)+E(xc)   XCENC  =       592.88821208
  PAW double counting   =     13043.91452278   -13315.90590778
  entropy T*S    EENTRO =        -0.00000000
  eigenvalues    EBANDS =     -1352.68573456
  atomic energy  EATOM  =     11559.90638050
  ---------------------------------------------------
  free energy    TOTEN  =      -130.80239462 eV

  energy without entropy =     -130.80239462  energy(sigma->0) =     -130.80239462


--------------------------------------------------------------------------------------------------------




--------------------------------------- Iteration      1(  13)  ---------------------------------------


    POTLOK:  cpu time    0.0652: real time    0.0660
    SETDIJ:  cpu time    0.8140: real time    0.8140
    TRIAL :  cpu time   23.7173: real time   23.7260
    CORREC:  cpu time   12.7965: real time   12.8033
[...]
     38       0.6065      1.00000
     39       1.0479      1.00000
     40       1.0479      1.00000
     41       1.4898      1.00000
     42       1.4899      1.00000
     43       1.8417      1.00000
     44       1.8417      1.00000
     45       2.2787      1.00000
     46       2.2788      1.00000
     47       2.6926      1.00000
     48       2.6927      1.00000
     49       3.1205      1.00000
     50       3.1205      1.00000
     51       5.6846      0.00000
     52       5.6846      0.00000
     53       5.9120      0.00000
     54       5.9120      0.00000
     55       6.3083      0.00000
     56       6.3083      0.00000
     57       6.5974      0.00000
     58       6.5975      0.00000
     59       6.8946      0.00000
     60       6.8946      0.00000

 k-point   154 :      -0.1818    0.4286    0.5000
  band No.  band energies     occupation 
      1     -48.6992      1.00000
      2     -48.6991      1.00000
      3     -48.6407      1.00000
      4     -48.6406      1.00000
      5     -48.5933      1.00000
      6     -48.5932      1.00000
      7     -44.8113      1.00000
      8     -44.8111      1.00000
      9     -44.7365      1.00000
     10     -44.7364      1.00000
     11     -44.6016      1.00000
     12     -44.6015      1.00000
     13     -16.0699      1.00000
     14     -16.0696      1.00000
     15     -15.2840      1.00000
     16     -15.2837      1.00000
     17     -14.8129      1.00000
     18     -14.8127      1.00000
     19     -14.7741      1.00000
     20     -14.7739      1.00000
     21      -2.7743      1.00000
     22      -2.7740      1.00000
     23      -2.2382      1.00000
     24      -2.2379      1.00000
     25      -2.0233      1.00000
     26      -2.0231      1.00000
     27      -1.8797      1.00000
     28      -1.8795      1.00000
     29      -0.9231      1.00000
     30      -0.9231      1.00000
     31      -0.4439      1.00000
     32      -0.4437      1.00000
     33       0.0299      1.00000
     34       0.0300      1.00000
     35       0.2341      1.00000
     36       0.2343      1.00000
     37       0.7246      1.00000
     38       0.7247      1.00000
     39       1.1071      1.00000
     40       1.1071      1.00000
     41       1.4393      1.00000
     42       1.4395      1.00000
     43       1.8509      1.00000
     44       1.8510      1.00000
     45       2.3859      1.00000
     46       2.3860      1.00000
     47       2.7014      1.00000
     48       2.7015      1.00000
     49       3.2432      1.00000
     50       3.2433      1.00000
     51       5.6213      0.00000
     52       5.6214      0.00000
     53       5.7781      0.00000
     54       5.7781      0.00000
     55       6.5136      0.00000
     56       6.5137      0.00000
     57       6.8009      0.00000
     58       6.8009      0.00000
     59       6.9104      0.00000
     60       6.9105      0.00000

 k-point   155 :      -0.0909    0.4286    0.5000
  band No.  band energies     occupation 
      1     -48.6755      1.00000
      2     -48.6754      1.00000
      3     -48.6436      1.00000
      4     -48.6435      1.00000
      5     -48.5961      1.00000
      6     -48.5960      1.00000
      7     -44.7814      1.00000
      8     -44.7813      1.00000
      9     -44.7402      1.00000
     10     -44.7401      1.00000
     11     -44.6055      1.00000
     12     -44.6054      1.00000
     13     -16.2670      1.00000
     14     -16.2667      1.00000
     15     -15.4093      1.00000
     16     -15.4090      1.00000
     17     -14.7818      1.00000
     18     -14.7816      1.00000
     19     -14.7387      1.00000
     20     -14.7386      1.00000
     21      -3.0490      1.00000
     22      -3.0487      1.00000
     23      -2.3632      1.00000
     24      -2.3629      1.00000
     25      -1.7918      1.00000
     26      -1.7915      1.00000
     27      -1.6225      1.00000
     28      -1.6223      1.00000
     29      -1.1378      1.00000
     30      -1.1376      1.00000
     31      -0.2795      1.00000
     32      -0.2793      1.00000
     33       0.0969      1.00000
     34       0.0971      1.00000
     35       0.3953      1.00000
     36       0.3954      1.00000
     37       0.7722      1.00000
     38       0.7723      1.00000
     39       1.1589      1.00000
     40       1.1590      1.00000
     41       1.5759      1.00000
     42       1.5761      1.00000
     43       2.0365      1.00000
     44       2.0366      1.00000
     45       2.4559      1.00000
     46       2.4560      1.00000
     47       2.5562      1.00000
     48       2.5563      1.00000
     49       3.3116      1.00000
     50       3.3116      1.00000
     51       5.4933      0.00000
     52       5.4934      0.00000
     53       5.6604      0.00000
     54       5.6605      0.00000
     55       6.5106      0.00000
     56       6.5107      0.00000
     57       6.8687      0.00000
     58       6.8688      0.00000
     59       7.1850      0.00000
     60       7.1852      0.00000


--------------------------------------------------------------------------------------------------------


 soft charge-density along one line, spin component           1
         0         1         2         3         4         5         6         7         8         9
 total charge-density along one line
 
 soft charge-density along one line, spin component           2
         0         1         2         3         4         5         6         7         8         9
 total charge-density along one line
 
 pseudopotential strength for first ion, spin component:           1
-44.676  -0.005  -0.000   8.841   0.003  -0.000  -0.000  -0.018
 -0.005 -44.750  -0.000   0.003   8.873   0.000  -0.000  -0.003
 -0.000  -0.000 -44.811  -0.000   0.000   8.902  -0.005  -0.000
  8.841   0.003  -0.000   5.221  -0.003   0.000  -0.000   0.008
  0.003   8.873   0.000  -0.003   5.218   0.000  -0.000   0.004
 -0.000   0.000   8.902   0.000   0.000   5.213   0.003  -0.000
 -0.000  -0.000  -0.005  -0.000  -0.000   0.003  -3.780  -0.000
 -0.018  -0.003  -0.000   0.008   0.004  -0.000  -0.000  -3.879
 -0.003  -0.010   0.000   0.002  -0.005   0.000   0.000   0.271
 -0.000  -0.000  -0.010  -0.000  -0.000  -0.003  -0.480  -0.000
 -0.007   0.004  -0.000   0.002  -0.005  -0.000   0.000  -0.325
 -0.000  -0.000  -0.005  -0.000  -0.000   0.003  -4.255  -0.000
 -0.018  -0.003  -0.000   0.007   0.004  -0.000  -0.000  -4.353
 -0.003  -0.010   0.000   0.002  -0.005   0.000   0.000   0.268
 -0.000  -0.000  -0.010  -0.000  -0.000  -0.002  -0.474  -0.000
 -0.007   0.004  -0.000   0.002  -0.005  -0.000   0.000  -0.322
  0.001   0.003  -0.000  -0.000   0.001  -0.000  -0.000   0.002
  0.001   0.006  -0.000  -0.001   0.002  -0.000  -0.000   0.005
 pseudopotential strength for first ion, spin component:           2
-47.334  -0.002   0.000  10.082  -0.004  -0.000  -0.000   0.000
 -0.002 -47.350   0.000  -0.004  10.096  -0.000  -0.000   0.006
  0.000   0.000 -47.393  -0.000  -0.000  10.119   0.007  -0.000
 10.082  -0.004  -0.000   4.893   0.002  -0.000   0.000  -0.003
 -0.004  10.096  -0.000   0.002   4.888  -0.000   0.000  -0.002
 -0.000  -0.000  10.119  -0.000  -0.000   4.881  -0.007   0.000
 -0.000  -0.000   0.007   0.000   0.000  -0.007  -5.976   0.000
  0.000   0.006  -0.000  -0.003  -0.002   0.000   0.000  -5.751
  0.000  -0.032   0.000   0.000   0.016  -0.000  -0.000  -0.322
 -0.000  -0.000  -0.019   0.000   0.000   0.008   0.572   0.000
  0.002  -0.010  -0.000  -0.004   0.005   0.000   0.000   0.395
 -0.000  -0.000   0.007   0.000   0.000  -0.007  -6.417   0.000
  0.000   0.006  -0.000  -0.003  -0.002   0.000   0.000  -6.195
  0.000  -0.031   0.000   0.000   0.015  -0.000  -0.000  -0.318
 -0.000  -0.000  -0.019   0.000   0.000   0.008   0.564   0.000
  0.001  -0.009  -0.000  -0.004   0.005   0.000   0.000   0.390
 -0.001   0.009   0.000   0.000  -0.000   0.000  -0.000  -0.004
 -0.003   0.018   0.000   0.000   0.001   0.000  -0.000  -0.008
 total augmentation occupancy for first ion, spin component:           1
  1.984   0.000   0.000  -0.063  -0.000   0.000  -0.000   0.009   0.001  -0.000   0.004   0.000  -0.008  -0.000   0.000  -0.003
  0.000   1.984  -0.000  -0.000  -0.062  -0.000  -0.000  -0.001  -0.013  -0.000  -0.009   0.000   0.001   0.013   0.000   0.008
  0.000  -0.000   1.984   0.000  -0.000  -0.062   0.005  -0.000   0.000  -0.007  -0.000  -0.004   0.000  -0.000   0.007   0.000
 -0.063  -0.000   0.000   0.248  -0.006   0.000  -0.000   0.121   0.009  -0.000   0.089   0.000  -0.126  -0.010   0.000  -0.088
 -0.000  -0.062  -0.000  -0.006   0.267   0.000  -0.000  -0.048  -0.179   0.000  -0.113   0.000   0.042   0.186   0.000   0.118
  0.000  -0.000  -0.062   0.000   0.000   0.287   0.129  -0.000  -0.000  -0.056   0.000  -0.121   0.000  -0.000   0.067   0.000
 -0.000  -0.000   0.005  -0.000  -0.000   0.129   6.783   0.000  -0.000  -1.611   0.000  -6.211  -0.000   0.000  -0.042  -0.000
  0.009  -0.001  -0.000   0.121  -0.048  -0.000   0.000   5.852   0.688   0.000  -0.748  -0.000  -5.855   0.244  -0.000  -0.401
  0.001  -0.013   0.000   0.009  -0.179  -0.000  -0.000   0.688   8.235   0.000   0.131   0.000   0.272  -6.360   0.000   0.376
 -0.000  -0.000  -0.007  -0.000   0.000  -0.056  -1.611   0.000   0.000   6.979  -0.000  -0.066  -0.000  -0.000  -6.354   0.000
  0.004  -0.009  -0.000   0.089  -0.113   0.000   0.000  -0.748   0.131  -0.000   8.067  -0.000  -0.426   0.372   0.000  -6.415
  0.000   0.000  -0.004   0.000   0.000  -0.121  -6.211  -0.000   0.000  -0.066  -0.000   6.646   0.000  -0.000   1.477   0.000
 -0.008   0.001   0.000  -0.126   0.042   0.000  -0.000  -5.855   0.272  -0.000  -0.426   0.000   6.766  -1.074   0.000   1.414
 -0.000   0.013  -0.000  -0.010   0.186  -0.000   0.000   0.244  -6.360  -0.000   0.372  -0.000  -1.074   5.699  -0.000  -0.790
  0.000   0.000   0.007   0.000   0.000   0.067  -0.042  -0.000   0.000  -6.354   0.000   1.477   0.000  -0.000   6.751  -0.000
 -0.003   0.008   0.000  -0.088   0.118   0.000  -0.000  -0.401   0.376   0.000  -6.415   0.000   1.414  -0.790  -0.000   5.926
  0.003  -0.023  -0.000   0.007   0.026  -0.000  -0.000   0.428  -0.015   0.000  -0.823   0.000  -0.418   0.015  -0.000   0.786
 -0.001   0.012   0.000  -0.001  -0.005   0.000   0.000  -0.105  -0.000  -0.000   0.208  -0.000   0.108  -0.002   0.000  -0.187
 total augmentation occupancy for first ion, spin component:           2
  0.003  -0.000   0.000   0.009  -0.001   0.000  -0.000   0.005   0.000  -0.000   0.003   0.000  -0.005  -0.000   0.000  -0.003
 -0.000   0.003  -0.000  -0.001   0.009  -0.000  -0.000   0.004  -0.004  -0.000  -0.002   0.000  -0.003   0.005   0.000   0.003
  0.000  -0.000   0.003   0.000  -0.000   0.009   0.002  -0.000   0.000  -0.002  -0.000  -0.003   0.000  -0.000   0.002   0.000
  0.009  -0.001   0.000  -0.013   0.000   0.000  -0.000  -0.030  -0.018  -0.000  -0.016   0.000   0.018   0.010   0.000   0.011
 -0.001   0.009  -0.000   0.000  -0.010  -0.000  -0.000   0.007   0.061  -0.000   0.039   0.000  -0.009  -0.037   0.000  -0.021
  0.000  -0.000   0.009   0.000  -0.000  -0.020  -0.051   0.000  -0.000   0.019   0.000   0.034   0.000  -0.000  -0.010  -0.000
 -0.000  -0.000   0.002  -0.000  -0.000  -0.051  -3.027  -0.000   0.000   3.864  -0.000   1.523   0.000  -0.000  -2.640   0.000
  0.005   0.004  -0.000  -0.030   0.007   0.000  -0.000  -1.393  -2.139  -0.000   2.559   0.000   0.348   1.474   0.000  -1.757
  0.000  -0.004   0.000  -0.018   0.061  -0.000   0.000  -2.139  -6.080  -0.000  -1.213  -0.000   1.441   3.598  -0.000   0.862
 -0.000  -0.000  -0.002  -0.000  -0.000   0.019   3.864  -0.000  -0.000  -3.162   0.000  -2.616   0.000   0.000   1.617  -0.000
  0.003  -0.002  -0.000  -0.016   0.039   0.000  -0.000   2.559  -1.213   0.000  -5.429   0.000  -1.719   0.862  -0.000   3.108
  0.000   0.000  -0.003   0.000   0.000   0.034   1.523   0.000  -0.000  -2.616   0.000  -0.595  -0.000   0.000   1.841  -0.000
 -0.005  -0.003   0.000   0.018  -0.009   0.000   0.000   0.348   1.441   0.000  -1.719  -0.000   0.260  -1.033  -0.000   1.229
 -0.000   0.005  -0.000   0.010  -0.037  -0.000  -0.000   1.474   3.598   0.000   0.862   0.000  -1.033  -2.029   0.000  -0.617
  0.000   0.000   0.002   0.000   0.000  -0.010  -2.640   0.000  -0.000   1.617  -0.000   1.841  -0.000   0.000  -0.659   0.000
 -0.003   0.003   0.000   0.011  -0.021  -0.000   0.000  -1.757   0.862  -0.000   3.108  -0.000   1.229  -0.617   0.000  -1.666
 -0.001  -0.003   0.001  -0.002   0.002  -0.000   0.000  -0.154   0.066  -0.000   0.185  -0.000   0.086  -0.053   0.000  -0.098
  0.000   0.001  -0.000  -0.000   0.000   0.000  -0.000   0.030  -0.012   0.000  -0.051   0.000  -0.017   0.013  -0.000   0.024


------------------------ aborting loop because EDIFF is reached ----------------------------------------


    FORLOC:  cpu time    0.0016: real time    0.0016
    FORNL :  cpu time    2.9185: real time    2.9185
    STRESS:  cpu time   74.3865: real time   74.3872
    FORCOR:  cpu time    0.0595: real time    0.0606
    OFIELD:  cpu time    0.0003: real time    0.0003

  FORCE on cell =-STRESS in cart. coord.  units (eV):
  Direction    XX          YY          ZZ          XY          YZ          ZX
  --------------------------------------------------------------------------------------
  Alpha Z   466.41413   466.41413   466.41413
  Ewald   -1256.63560 -4076.67702 -2264.60333    -0.00441     0.09241    -0.00165
  Hartree  2028.09967   122.11039  1378.13270    -0.00242     0.05556    -0.00088
  E(xc)    -593.05998  -591.93390  -592.43013     0.00000     0.00009     0.00000
  Local   -2402.37921  2271.73484  -770.33171     0.00665    -0.14657     0.00247
  n-local  -296.70448  -305.95181  -301.98105    -0.00008     0.00095    -0.00003
  augment   474.79942   485.46559   480.68068     0.00005    -0.00026     0.00003
  Kinetic  1579.49182  1628.60294  1604.41621     0.00025     0.00097     0.00011
  Fock        0.00000     0.00000     0.00000     0.00000     0.00000     0.00000
  -------------------------------------------------------------------------------------
  Total       0.02578    -0.23484     0.29750     0.00004     0.00317     0.00005
  in kB       0.34630    -3.15459     3.99618     0.00053     0.04254     0.00069
  external pressure =        0.40 kB  Pullay stress =        0.00 kB


 VOLUME and BASIS-vectors are now :
 -----------------------------------------------------------------------------
  energy-cutoff  :      520.00
  volume of cell :      119.27
      direct lattice vectors                 reciprocal lattice vectors
     2.854346809 -0.000002381 -0.000002308     0.350342851  0.000000650 -0.000000114
    -0.000008433  4.544929338 -0.000017861     0.000000184  0.220025423  0.000001471
     0.000002993 -0.000061454  9.194139798     0.000000088  0.000000427  0.108764933

  length of vectors
     2.854346809  4.544929338  9.194139798     0.350342851  0.220025423  0.108764933


 FORCES acting on ions:
    Electron-Ion                     Ewald-Force                    Non-Local-Force
 -----------------------------------------------------------------------------------------------
   0.225E-02 -.242E+02 0.125E+03   -.142E-02 0.245E+02 -.126E+03   -.847E-03 -.224E+00 0.117E+01
   0.453E-02 0.242E+02 -.125E+03   -.361E-02 -.245E+02 0.126E+03   -.920E-03 0.224E+00 -.117E+01
   0.215E-02 -.242E+02 -.125E+03   -.130E-02 0.245E+02 0.126E+03   -.850E-03 -.224E+00 -.117E+01
   0.435E-02 0.242E+02 0.125E+03   -.344E-02 -.245E+02 -.126E+03   -.889E-03 0.224E+00 0.117E+01
   -.124E-02 -.360E+03 0.444E+02   0.143E-02 0.386E+03 -.478E+02   -.194E-03 -.262E+02 0.335E+01
   -.130E-02 -.360E+03 -.444E+02   0.153E-02 0.386E+03 0.478E+02   -.247E-03 -.262E+02 -.335E+01
   -.184E-02 0.360E+03 0.444E+02   0.211E-02 -.386E+03 -.478E+02   -.237E-03 0.262E+02 0.335E+01
   -.182E-02 0.360E+03 -.444E+02   0.209E-02 -.386E+03 0.478E+02   -.263E-03 0.262E+02 -.335E+01
   -.124E-02 -.692E+02 -.413E+02   0.153E-02 0.736E+02 0.425E+02   -.317E-03 -.439E+01 -.120E+01
   0.131E-03 0.692E+02 -.413E+02   -.594E-04 -.736E+02 0.425E+02   -.601E-04 0.439E+01 -.120E+01
   -.748E-03 -.692E+02 0.413E+02   0.964E-03 0.736E+02 -.425E+02   -.236E-03 -.439E+01 0.120E+01
   -.756E-04 0.692E+02 0.413E+02   0.187E-03 -.736E+02 -.425E+02   -.969E-04 0.439E+01 0.120E+01
 -----------------------------------------------------------------------------------------------
   0.514E-02 -.233E-03 -.408E-03   -.273E-13 -.853E-13 -.199E-12   -.516E-02 0.225E-03 0.404E-03
 
 
 POSITION                                       TOTAL-FORCE (eV/Angst)
 -----------------------------------------------------------------------------------
      0.71359      0.13849      7.94932        -0.000014      0.011653     -0.005637
      2.14076      4.40638      1.24480         0.000005     -0.011725      0.005651
      2.14076      2.41100      5.84187        -0.000001      0.010779      0.005153
      0.71359      2.13387      3.35225         0.000017     -0.010892     -0.005192
      0.71358      3.23880      4.90898         0.000001     -0.001666     -0.009722
      2.14076      0.96625      8.88219        -0.000021     -0.000876      0.010237
      0.71357      3.57862      0.31193         0.000027      0.000887     -0.010222
      2.14075      1.30608      4.28515         0.000006      0.001662      0.009681
      0.71359      0.79813      2.04015        -0.000028      0.008122     -0.025070
      0.71358      1.47429      6.63721         0.000013     -0.008212     -0.024976
      2.14076      3.07056      2.55691        -0.000019      0.008347      0.024970
      2.14075      3.74674      7.15398         0.000015     -0.008078      0.025128
 -----------------------------------------------------------------------------------
    total drift:                               -0.000012     -0.000008     -0.000005


--------------------------------------------------------------------------------------------------------



  FREE ENERGIE OF THE ION-ELECTRON SYSTEM (eV)
  ---------------------------------------------------
  free  energy   TOTEN  =      -130.90266671 eV

  energy  without entropy=     -130.90266671  energy(sigma->0) =     -130.90266671
 


--------------------------------------------------------------------------------------------------------


    POTLOK:  cpu time    0.8354: real time    0.8354


--------------------------------------------------------------------------------------------------------


 stress matrix after NEB project (eV)
      0.02578      0.00004      0.00005
      0.00004     -0.23484      0.00317
      0.00005      0.00317      0.29750
  FORCES: max atom, RMS     0.026394    0.017808
  FORCE total and by dimension    0.061689    0.025128
  Stress total and by dimension    0.379920    0.297495
 writing wavefunctions
     LOOP+:  cpu time 1192.7899: real time 1194.8265
    4ORBIT:  cpu time    0.0000: real time    0.0000

 total amount of memory used by VASP MPI-rank0   266672. kBytes
=======================================================================

   base      :      30000. kBytes
   nonl-proj :      37120. kBytes
   fftplans  :       1491. kBytes
   grid      :       5125. kBytes
   one-center:         93. kBytes
   wavefun   :     192843. kBytes
 
  
  
 General timing and accounting informations for this job:
 ========================================================
  
                  Total CPU time used (sec):     1208.985
                            User time (sec):     1186.063
                          System time (sec):       22.922
                         Elapsed time (sec):     1211.556
  
                   Maximum memory used (kb):      333348.
                   Average memory used (kb):           0.
  
                          Minor page faults:       977237
                          Major page faults:            1
                 Voluntary context switches:         1823
