<?xml version="1.0" encoding="ISO-8859-1"?>
<modeling>
 <generator>
  <i name="program" type="string">vasp </i>
  <i name="version" type="string">5.4.4.18Apr17-6-g9f103f2a35  </i>
  <i name="subversion" type="string">(build Nov 08 2022 17:27:33) complex            parallel </i>
  <i name="platform" type="string">LinuxIFC </i>
  <i name="date" type="string">2022 11 22 </i>
  <i name="time" type="string">21:29:26 </i>
 </generator>
 <incar>
  <i type="string" name="PREC">accurate</i>
  <i type="string" name="ALGO"> All</i>
  <i type="int" name="ISPIN">     2</i>
  <i type="int" name="ICHARG">     0</i>
  <i type="int" name="NELM">   200</i>
  <i type="int" name="IBRION">     2</i>
  <i name="EDIFF">      0.00000100</i>
  <i name="EDIFFG">     -0.03000000</i>
  <i type="int" name="NSW">     0</i>
  <i type="int" name="ISIF">     3</i>
  <i type="int" name="ISYM">     0</i>
  <i name="ENCUT">    520.00000000</i>
  <i name="ENAUG">   1040.00000000</i>
  <v name="MAGMOM">     -5.00000000      5.00000000      5.00000000     -5.00000000      0.00000000      0.00000000      0.00000000      0.00000000      0.00000000      0.00000000      0.00000000      0.00000000</v>
  <i type="logical" name="LREAL"> F  </i>
  <i type="int" name="ISMEAR">     0</i>
  <i name="SIGMA">      0.01000000</i>
  <i name="KSPACING">      0.22000000</i>
  <i type="int" name="LMAXMIX">     4</i>
  <i type="logical" name="LWAVE"> T  </i>
  <i type="logical" name="LCHARG"> T  </i>
  <i type="logical" name="LVTOT"> T  </i>
  <i type="logical" name="LVHAR"> T  </i>
  <i type="int" name="LORBIT">     0</i>
  <i type="logical" name="LELF"> T  </i>
  <i type="logical" name="LASPH"> T  </i>
  <i type="logical" name="LAECHG"> T  </i>
  <v type="int" name="KPOINT_BSE">    -1     0     0     0</v>
  <i type="int" name="NELM">   200</i>
  <i type="string" name="GGA"> Pe</i>
  <i type="string" name="METAGGA"> R2scan</i>
  <i type="logical" name="LASPH"> T  </i>
  <i type="int" name="LMIXTAU">    -1</i>
 </incar>
 <structure name="primitive_cell" >
  <crystal>
   <varray name="basis" >
    <v>       2.85434681      -0.00000238      -0.00000231 </v>
    <v>      -0.00000843       4.54492934      -0.00001786 </v>
    <v>       0.00000299      -0.00006145       9.19413980 </v>
   </varray>
   <i name="volume">    119.27377864 </i>
   <varray name="rec_basis" >
    <v>       0.35034285       0.00000065      -0.00000011 </v>
    <v>       0.00000018       0.22002542       0.00000147 </v>
    <v>       0.00000009       0.00000043       0.10876493 </v>
   </varray>
  </crystal>
  <varray name="positions" >
   <v>       0.25000138       0.03048329      -0.13539269 </v>
   <v>       0.24999910       0.32439125      -0.27810401 </v>
   <v>      -0.25000066      -0.17561213      -0.22189649 </v>
   <v>      -0.24999981       0.21261304      -0.03392871 </v>
   <v>       0.24999749      -0.21261230       0.03392861 </v>
   <v>      -0.24999819      -0.03048258       0.13539271 </v>
   <v>       0.25000141       0.17561156       0.22189687 </v>
   <v>       0.24999900      -0.28737510      -0.46607399 </v>
   <v>      -0.24999942      -0.46950911      -0.36460780 </v>
   <v>      -0.25000242       0.28737644       0.46607476 </v>
   <v>      -0.24999914      -0.32439356       0.27810335 </v>
   <v>       0.25000127       0.46951019       0.36460838 </v>
  </varray>
 </structure>
 <varray name="primitive_index" >
  <v type="int" >        1 </v>
  <v type="int" >       10 </v>
  <v type="int" >       12 </v>
  <v type="int" >        6 </v>
  <v type="int" >        7 </v>
  <v type="int" >        2 </v>
  <v type="int" >        9 </v>
  <v type="int" >        5 </v>
  <v type="int" >        3 </v>
  <v type="int" >        8 </v>
  <v type="int" >       11 </v>
  <v type="int" >        4 </v>
 </varray>
 <kpoints>
  <generation param="Gamma">
   <v type="int" name="divisions">      11        7        4 </v>
   <v name="usershift">      0.00000000       0.00000000       0.00000000 </v>
   <v name="genvec1">      0.09090909      -0.00000000      -0.00000000 </v>
   <v name="genvec2">     -0.00000000       0.14285714       0.00000000 </v>
   <v name="genvec3">      0.00000000       0.00000000       0.25000000 </v>
   <v name="shift">      0.00000000       0.00000000       0.00000000 </v>
  </generation>
  <varray name="kpointlist" >
   <v>       0.00000000       0.00000000       0.00000000 </v>
   <v>       0.09090909       0.00000000      -0.00000000 </v>
   <v>       0.18181818       0.00000000      -0.00000000 </v>
   <v>       0.27272727      -0.00000000       0.00000000 </v>
   <v>       0.36363636       0.00000000      -0.00000000 </v>
   <v>       0.45454545       0.00000000       0.00000000 </v>
   <v>       0.00000000       0.14285714       0.00000000 </v>
   <v>       0.09090909       0.14285714      -0.00000000 </v>
   <v>       0.18181818       0.14285714       0.00000000 </v>
   <v>       0.27272727       0.14285714      -0.00000000 </v>
   <v>       0.36363636       0.14285714       0.00000000 </v>
   <v>       0.45454545       0.14285714       0.00000000 </v>
   <v>      -0.45454545       0.14285714       0.00000000 </v>
   <v>      -0.36363636       0.14285714       0.00000000 </v>
   <v>      -0.27272727       0.14285714       0.00000000 </v>
   <v>      -0.18181818       0.14285714       0.00000000 </v>
   <v>      -0.09090909       0.14285714       0.00000000 </v>
   <v>      -0.00000000       0.28571429       0.00000000 </v>
   <v>       0.09090909       0.28571429       0.00000000 </v>
   <v>       0.18181818       0.28571429       0.00000000 </v>
   <v>       0.27272727       0.28571429       0.00000000 </v>
   <v>       0.36363636       0.28571429       0.00000000 </v>
   <v>       0.45454545       0.28571429       0.00000000 </v>
   <v>      -0.45454545       0.28571429      -0.00000000 </v>
   <v>      -0.36363636       0.28571429       0.00000000 </v>
   <v>      -0.27272727       0.28571429       0.00000000 </v>
   <v>      -0.18181818       0.28571429       0.00000000 </v>
   <v>      -0.09090909       0.28571429       0.00000000 </v>
   <v>      -0.00000000       0.42857143      -0.00000000 </v>
   <v>       0.09090909       0.42857143       0.00000000 </v>
   <v>       0.18181818       0.42857143      -0.00000000 </v>
   <v>       0.27272727       0.42857143      -0.00000000 </v>
   <v>       0.36363636       0.42857143      -0.00000000 </v>
   <v>       0.45454545       0.42857143       0.00000000 </v>
   <v>      -0.45454545       0.42857143      -0.00000000 </v>
   <v>      -0.36363636       0.42857143      -0.00000000 </v>
   <v>      -0.27272727       0.42857143       0.00000000 </v>
   <v>      -0.18181818       0.42857143       0.00000000 </v>
   <v>      -0.09090909       0.42857143      -0.00000000 </v>
   <v>      -0.00000000       0.00000000       0.25000000 </v>
   <v>       0.09090909       0.00000000       0.25000000 </v>
   <v>       0.18181818       0.00000000       0.25000000 </v>
   <v>       0.27272727       0.00000000       0.25000000 </v>
   <v>       0.36363636      -0.00000000       0.25000000 </v>
   <v>       0.45454545       0.00000000       0.25000000 </v>
   <v>      -0.45454545       0.00000000       0.25000000 </v>
   <v>      -0.36363636      -0.00000000       0.25000000 </v>
   <v>      -0.27272727       0.00000000       0.25000000 </v>
   <v>      -0.18181818       0.00000000       0.25000000 </v>
   <v>      -0.09090909       0.00000000       0.25000000 </v>
   <v>      -0.00000000       0.14285714       0.25000000 </v>
   <v>       0.09090909       0.14285714       0.25000000 </v>
   <v>       0.18181818       0.14285714       0.25000000 </v>
   <v>       0.27272727       0.14285714       0.25000000 </v>
   <v>       0.36363636       0.14285714       0.25000000 </v>
   <v>       0.45454545       0.14285714       0.25000000 </v>
   <v>      -0.45454545       0.14285714       0.25000000 </v>
   <v>      -0.36363636       0.14285714       0.25000000 </v>
   <v>      -0.27272727       0.14285714       0.25000000 </v>
   <v>      -0.18181818       0.14285714       0.25000000 </v>
   <v>      -0.09090909       0.14285714       0.25000000 </v>
   <v>      -0.00000000       0.28571429       0.25000000 </v>
   <v>       0.09090909       0.28571429       0.25000000 </v>
   <v>       0.18181818       0.28571429       0.25000000 </v>
   <v>       0.27272727       0.28571429       0.25000000 </v>
   <v>       0.36363636       0.28571429       0.25000000 </v>
   <v>       0.45454545       0.28571429       0.25000000 </v>
   <v>      -0.45454545       0.28571429       0.25000000 </v>
   <v>      -0.36363636       0.28571429       0.25000000 </v>
   <v>      -0.27272727       0.28571429       0.25000000 </v>
   <v>      -0.18181818       0.28571429       0.25000000 </v>
   <v>      -0.09090909       0.28571429       0.25000000 </v>
   <v>      -0.00000000       0.42857143       0.25000000 </v>
   <v>       0.09090909       0.42857143       0.25000000 </v>
   <v>       0.18181818       0.42857143       0.25000000 </v>
   <v>       0.27272727       0.42857143       0.25000000 </v>
   <v>       0.36363636       0.42857143       0.25000000 </v>
   <v>       0.45454545       0.42857143       0.25000000 </v>
   <v>      -0.45454545       0.42857143       0.25000000 </v>
   <v>      -0.36363636       0.42857143       0.25000000 </v>
   <v>      -0.27272727       0.42857143       0.25000000 </v>
   <v>      -0.18181818       0.42857143       0.25000000 </v>
   <v>      -0.09090909       0.42857143       0.25000000 </v>
   <v>       0.00000000      -0.42857143       0.25000000 </v>
   <v>       0.09090909      -0.42857143       0.25000000 </v>
   <v>       0.18181818      -0.42857143       0.25000000 </v>
   <v>       0.27272727      -0.42857143       0.25000000 </v>
   <v>       0.36363636      -0.42857143       0.25000000 </v>
   <v>       0.45454545      -0.42857143       0.25000000 </v>
   <v>      -0.45454545      -0.42857143       0.25000000 </v>
   <v>      -0.36363636      -0.42857143       0.25000000 </v>
   <v>      -0.27272727      -0.42857143       0.25000000 </v>
   <v>      -0.18181818      -0.42857143       0.25000000 </v>
   <v>      -0.09090909      -0.42857143       0.25000000 </v>
   <v>       0.00000000      -0.28571429       0.25000000 </v>
   <v>       0.09090909      -0.28571429       0.25000000 </v>
   <v>       0.18181818      -0.28571429       0.25000000 </v>
   <v>       0.27272727      -0.28571429       0.25000000 </v>
   <v>       0.36363636      -0.28571429       0.25000000 </v>
   <v>       0.45454545      -0.28571429       0.25000000 </v>
   <v>      -0.45454545      -0.28571429       0.25000000 </v>
   <v>      -0.36363636      -0.28571429       0.25000000 </v>
   <v>      -0.27272727      -0.28571429       0.25000000 </v>
   <v>      -0.18181818      -0.28571429       0.25000000 </v>
   <v>      -0.09090909      -0.28571429       0.25000000 </v>
   <v>       0.00000000      -0.14285714       0.25000000 </v>
   <v>       0.09090909      -0.14285714       0.25000000 </v>
   <v>       0.18181818      -0.14285714       0.25000000 </v>
   <v>       0.27272727      -0.14285714       0.25000000 </v>
   <v>       0.36363636      -0.14285714       0.25000000 </v>
   <v>       0.45454545      -0.14285714       0.25000000 </v>
   <v>      -0.45454545      -0.14285714       0.25000000 </v>
   <v>      -0.36363636      -0.14285714       0.25000000 </v>
   <v>      -0.27272727      -0.14285714       0.25000000 </v>
   <v>      -0.18181818      -0.14285714       0.25000000 </v>
   <v>      -0.09090909      -0.14285714       0.25000000 </v>
   <v>      -0.00000000       0.00000000       0.50000000 </v>
   <v>       0.09090909       0.00000000       0.50000000 </v>
   <v>       0.18181818       0.00000000       0.50000000 </v>
   <v>       0.27272727       0.00000000       0.50000000 </v>
   <v>       0.36363636       0.00000000       0.50000000 </v>
   <v>       0.45454545       0.00000000       0.50000000 </v>
   <v>      -0.00000000       0.14285714       0.50000000 </v>
   <v>       0.09090909       0.14285714       0.50000000 </v>
   <v>       0.18181818       0.14285714       0.50000000 </v>
   <v>       0.27272727       0.14285714       0.50000000 </v>
   <v>       0.36363636       0.14285714       0.50000000 </v>
   <v>       0.45454545       0.14285714       0.50000000 </v>
   <v>      -0.45454545       0.14285714       0.50000000 </v>
   <v>      -0.36363636       0.14285714       0.50000000 </v>
   <v>      -0.27272727       0.14285714       0.50000000 </v>
   <v>      -0.18181818       0.14285714       0.50000000 </v>
   <v>      -0.09090909       0.14285714       0.50000000 </v>
   <v>      -0.00000000       0.28571429       0.50000000 </v>
   <v>       0.09090909       0.28571429       0.50000000 </v>
   <v>       0.18181818       0.28571429       0.50000000 </v>
   <v>       0.27272727       0.28571429       0.50000000 </v>
   <v>       0.36363636       0.28571429       0.50000000 </v>
   <v>       0.45454545       0.28571429       0.50000000 </v>
   <v>      -0.45454545       0.28571429       0.50000000 </v>
   <v>      -0.36363636       0.28571429       0.50000000 </v>
   <v>      -0.27272727       0.28571429       0.50000000 </v>
   <v>      -0.18181818       0.28571429       0.50000000 </v>
   <v>      -0.09090909       0.28571429       0.50000000 </v>
   <v>      -0.00000000       0.42857143       0.50000000 </v>
   <v>       0.09090909       0.42857143       0.50000000 </v>
   <v>       0.18181818       0.42857143       0.50000000 </v>
   <v>       0.27272727       0.42857143       0.50000000 </v>
   <v>       0.36363636       0.42857143       0.50000000 </v>
   <v>       0.45454545       0.42857143       0.50000000 </v>
   <v>      -0.45454545       0.42857143       0.50000000 </v>
   <v>      -0.36363636       0.42857143       0.50000000 </v>
   <v>      -0.27272727       0.42857143       0.50000000 </v>
   <v>      -0.18181818       0.42857143       0.50000000 </v>
   <v>      -0.09090909       0.42857143       0.50000000 </v>
  </varray>
  <varray name="weights" >
   <v>       0.00324675 </v>
   <v>       0.00649351 </v>
   <v>       0.00649351 </v>
   <v>       0.00649351 </v>
   <v>       0.00649351 </v>
   <v>       0.00649351 </v>
   <v>       0.00649351 </v>
   <v>       0.00649351 </v>
   <v>       0.00649351 </v>
   <v>       0.00649351 </v>
   <v>       0.00649351 </v>
   <v>       0.00649351 </v>
   <v>       0.00649351 </v>
   <v>       0.00649351 </v>
   <v>       0.00649351 </v>
   <v>       0.00649351 </v>
   <v>       0.00649351 </v>
   <v>       0.00649351 </v>
   <v>       0.00649351 </v>
   <v>       0.00649351 </v>
   <v>       0.00649351 </v>
   <v>       0.00649351 </v>
   <v>       0.00649351 </v>
   <v>       0.00649351 </v>
   <v>       0.00649351 </v>
   <v>       0.00649351 </v>
   <v>       0.00649351 </v>
   <v>       0.00649351 </v>
   <v>       0.00649351 </v>
   <v>       0.00649351 </v>
   <v>       0.00649351 </v>
   <v>       0.00649351 </v>
   <v>       0.00649351 </v>
   <v>       0.00649351 </v>
   <v>       0.00649351 </v>
   <v>       0.00649351 </v>
   <v>       0.00649351 </v>
   <v>       0.00649351 </v>
   <v>       0.00649351 </v>
   <v>       0.00649351 </v>
   <v>       0.00649351 </v>
   <v>       0.00649351 </v>
   <v>       0.00649351 </v>
   <v>       0.00649351 </v>
   <v>       0.00649351 </v>
   <v>       0.00649351 </v>
   <v>       0.00649351 </v>
   <v>       0.00649351 </v>
   <v>       0.00649351 </v>
   <v>       0.00649351 </v>
   <v>       0.00649351 </v>
   <v>       0.00649351 </v>
   <v>       0.00649351 </v>
   <v>       0.00649351 </v>
   <v>       0.00649351 </v>
   <v>       0.00649351 </v>
   <v>       0.00649351 </v>
   <v>       0.00649351 </v>
   <v>       0.00649351 </v>
   <v>       0.00649351 </v>
   <v>       0.00649351 </v>
   <v>       0.00649351 </v>
   <v>       0.00649351 </v>
   <v>       0.00649351 </v>
   <v>       0.00649351 </v>
   <v>       0.00649351 </v>
   <v>       0.00649351 </v>
   <v>       0.00649351 </v>
   <v>       0.00649351 </v>
   <v>       0.00649351 </v>
   <v>       0.00649351 </v>
   <v>       0.00649351 </v>
   <v>       0.00649351 </v>
   <v>       0.00649351 </v>
   <v>       0.00649351 </v>
   <v>       0.00649351 </v>
   <v>       0.00649351 </v>
   <v>       0.00649351 </v>
   <v>       0.00649351 </v>
   <v>       0.00649351 </v>
   <v>       0.00649351 </v>
   <v>       0.00649351 </v>
   <v>       0.00649351 </v>
   <v>       0.00649351 </v>
   <v>       0.00649351 </v>
   <v>       0.00649351 </v>
   <v>       0.00649351 </v>
   <v>       0.00649351 </v>
   <v>       0.00649351 </v>
   <v>       0.00649351 </v>
   <v>       0.00649351 </v>
   <v>       0.00649351 </v>
   <v>       0.00649351 </v>
   <v>       0.00649351 </v>
   <v>       0.00649351 </v>
   <v>       0.00649351 </v>
   <v>       0.00649351 </v>
   <v>       0.00649351 </v>
   <v>       0.00649351 </v>
   <v>       0.00649351 </v>
   <v>       0.00649351 </v>
   <v>       0.00649351 </v>
   <v>       0.00649351 </v>
   <v>       0.00649351 </v>
   <v>       0.00649351 </v>
   <v>       0.00649351 </v>
   <v>       0.00649351 </v>
   <v>       0.00649351 </v>
   <v>       0.00649351 </v>
   <v>       0.00649351 </v>
   <v>       0.00649351 </v>
   <v>       0.00649351 </v>
   <v>       0.00649351 </v>
   <v>       0.00649351 </v>
   <v>       0.00649351 </v>
   <v>       0.00649351 </v>
   <v>       0.00324675 </v>
   <v>       0.00649351 </v>
   <v>       0.00649351 </v>
   <v>       0.00649351 </v>
   <v>       0.00649351 </v>
   <v>       0.00649351 </v>
   <v>       0.00649351 </v>
   <v>       0.00649351 </v>
   <v>       0.00649351 </v>
   <v>       0.00649351 </v>
   <v>       0.00649351 </v>
   <v>       0.00649351 </v>
   <v>       0.00649351 </v>
   <v>       0.00649351 </v>
   <v>       0.00649351 </v>
   <v>       0.00649351 </v>
   <v>       0.00649351 </v>
   <v>       0.00649351 </v>
   <v>       0.00649351 </v>
   <v>       0.00649351 </v>
   <v>       0.00649351 </v>
   <v>       0.00649351 </v>
   <v>       0.00649351 </v>
   <v>       0.00649351 </v>
   <v>       0.00649351 </v>
   <v>       0.00649351 </v>
   <v>       0.00649351 </v>
   <v>       0.00649351 </v>
   <v>       0.00649351 </v>
   <v>       0.00649351 </v>
   <v>       0.00649351 </v>
   <v>       0.00649351 </v>
   <v>       0.00649351 </v>
   <v>       0.00649351 </v>
   <v>       0.00649351 </v>
   <v>       0.00649351 </v>
   <v>       0.00649351 </v>
   <v>       0.00649351 </v>
   <v>       0.00649351 </v>
  </varray>
 </kpoints>
 <parameters>
  <separator name="general" >
   <i type="string" name="SYSTEM">unknown system</i>
   <i type="logical" name="LCOMPAT"> F  </i>
  </separator>
  <separator name="electronic" >
   <i type="string" name="PREC">accura</i>
   <i name="ENMAX">    520.00000000</i>
   <i name="ENAUG">   1040.00000000</i>
   <i name="EDIFF">      0.00000100</i>
   <i type="int" name="IALGO">    58</i>
   <i type="int" name="IWAVPR">    10</i>
   <i type="int" name="NBANDS">    60</i>
   <i name="NELECT">    100.00000000</i>
   <i type="int" name="TURBO">     0</i>
   <i type="int" name="IRESTART">     0</i>
   <i type="int" name="NREBOOT">     0</i>
   <i type="int" name="NMIN">     0</i>
   <i name="EREF">      0.00000000</i>
   <separator name="electronic smearing" >
    <i type="int" name="ISMEAR">     0</i>
    <i name="SIGMA">      0.01000000</i>
    <i name="KSPACING">      0.22000000</i>
    <i type="logical" name="KGAMMA"> T  </i>
   </separator>
   <separator name="electronic projectors" >
    <i type="logical" name="LREAL"> F  </i>
    <v name="ROPT">      0.00000000      0.00000000</v>
    <i type="int" name="LMAXPAW">  -100</i>
    <i type="int" name="LMAXMIX">     4</i>
    <i type="logical" name="NLSPLINE"> F  </i>
   </separator>
   <separator name="electronic startup" >
    <i type="int" name="ISTART">     1</i>
    <i type="int" name="ICHARG">     0</i>
    <i type="int" name="INIWAV">     1</i>
   </separator>
   <separator name="electronic spin" >
    <i type="int" name="ISPIN">     2</i>
    <i type="logical" name="LNONCOLLINEAR"> F  </i>
    <v name="MAGMOM">     -5.00000000      5.00000000      5.00000000     -5.00000000      0.00000000      0.00000000      0.00000000      0.00000000      0.00000000      0.00000000      0.00000000      0.00000000</v>
    <i name="NUPDOWN">     -1.00000000</i>
    <i type="logical" name="LSORBIT"> F  </i>
    <v name="SAXIS">      0.00000000      0.00000000      1.00000000</v>
    <i type="logical" name="LSPIRAL"> F  </i>
    <v name="QSPIRAL">      0.00000000      0.00000000      0.00000000</v>
    <i type="logical" name="LZEROZ"> F  </i>
   </separator>
   <separator name="electronic exchange-correlation" >
    <i type="logical" name="LASPH"> T  </i>
    <i type="logical" name="LMETAGGA"> F  </i>
   </separator>
   <separator name="electronic convergence" >
    <i type="int" name="NELM">   200</i>
    <i type="int" name="NELMDL">     0</i>
    <i type="int" name="NELMIN">     2</i>
    <i name="ENINI">    520.00000000</i>
    <separator name="electronic convergence detail" >
     <i type="logical" name="LDIAG"> T  </i>
     <i type="logical" name="LSUBROT"> F  </i>
     <i name="WEIMIN">      0.00000000</i>
     <i name="EBREAK">      0.00000000</i>
     <i name="DEPER">      0.30000000</i>
     <i type="int" name="NRMM">     4</i>
     <i name="TIME">      0.40000000</i>
    </separator>
   </separator>
   <separator name="electronic mixer" >
    <i name="AMIX">      0.40000000</i>
    <i name="BMIX">      1.00000000</i>
    <i name="AMIN">      0.10000000</i>
    <i name="AMIX_MAG">      1.60000000</i>
    <i name="BMIX_MAG">      1.00000000</i>
    <separator name="electronic mixer details" >
     <i type="int" name="IMIX">     4</i>
     <i type="logical" name="MIXFIRST"> F  </i>
     <i type="int" name="MAXMIX">   -45</i>
     <i name="WC">    100.00000000</i>
     <i type="int" name="INIMIX">     1</i>
     <i type="int" name="MIXPRE">     1</i>
     <i type="int" name="MREMOVE">     5</i>
    </separator>
   </separator>
   <separator name="electronic dipolcorrection" >
    <i type="logical" name="LDIPOL"> F  </i>
    <i type="logical" name="LMONO"> F  </i>
    <i type="int" name="IDIPOL">     0</i>
    <i name="EPSILON">      1.00000000</i>
    <v name="DIPOL">   -100.00000000   -100.00000000   -100.00000000</v>
    <i name="EFIELD">      0.00000000</i>
   </separator>
  </separator>
  <separator name="grids" >
   <i type="int" name="NGX">    24</i>
   <i type="int" name="NGY">    36</i>
   <i type="int" name="NGZ">    70</i>
   <i type="int" name="NGXF">    48</i>
   <i type="int" name="NGYF">    72</i>
   <i type="int" name="NGZF">   140</i>
   <i type="logical" name="ADDGRID"> F  </i>
  </separator>
  <separator name="ionic" >
   <i type="int" name="NSW">     0</i>
   <i type="int" name="IBRION">    -1</i>
   <i type="int" name="MDALGO">     0</i>
   <i type="int" name="ISIF">     3</i>
   <i name="PSTRESS">      0.00000000</i>
   <i name="EDIFFG">     -0.03000000</i>
   <i type="int" name="NFREE">     1</i>
   <i name="POTIM">      0.50000000</i>
   <i name="SMASS">     -3.00000000</i>
   <i name="SCALEE">      1.00000000</i>
  </separator>
  <separator name="ionic md" >
   <i name="TEBEG">      0.00010000</i>
   <i name="TEEND">      0.00010000</i>
   <i type="int" name="NBLOCK">     1</i>
   <i type="int" name="KBLOCK">     1</i>
   <i type="int" name="NPACO">   256</i>
   <i name="APACO">     16.00000000</i>
  </separator>
  <separator name="symmetry" >
   <i type="int" name="ISYM">     0</i>
   <i name="SYMPREC">      0.00001000</i>
  </separator>
  <separator name="dos" >
   <i type="int" name="LORBIT">     0</i>
   <v name="RWIGS">     -1.00000000     -1.00000000</v>
   <i type="int" name="NEDOS">   301</i>
   <i name="EMIN">     10.00000000</i>
   <i name="EMAX">    -10.00000000</i>
   <i name="EFERMI">      0.00000000</i>
  </separator>
  <separator name="writing" >
   <i type="int" name="NWRITE">     2</i>
   <i type="logical" name="LWAVE"> T  </i>
   <i type="logical" name="LDOWNSAMPLE"> F  </i>
   <i type="logical" name="LCHARG"> T  </i>
   <i type="logical" name="LPARD"> F  </i>
   <i type="logical" name="LVTOT"> F  </i>
   <i type="logical" name="LVHAR"> T  </i>
   <i type="logical" name="LELF"> T  </i>
   <i type="logical" name="LOPTICS"> F  </i>
   <v name="STM">      0.00000000      0.00000000      0.00000000      0.00000000      0.00000000      0.00000000      0.00000000</v>
  </separator>
  <separator name="performance" >
   <i type="int" name="NPAR">     4</i>
   <i type="int" name="NSIM">     4</i>
   <i type="int" name="NBLK">    -1</i>
   <i type="logical" name="LPLANE"> T  </i>
   <i type="logical" name="LSCALAPACK"> T  </i>
   <i type="logical" name="LSCAAWARE"> F  </i>
   <i type="logical" name="LSCALU"> F  </i>
   <i type="logical" name="LASYNC"> F  </i>
   <i type="logical" name="LORBITALREAL"> F  </i>
  </separator>
  <separator name="miscellaneous" >
   <i type="int" name="IDIOT">     3</i>
   <i type="int" name="ISPECIAL">     0</i>
   <i type="logical" name="LMUSIC"> F  </i>
   <v name="POMASS">     54.93800000     16.00000000</v>
   <v name="DARWINR">      0.00000000      0.00000000</v>
   <v name="DARWINV">      1.00000000      1.00000000</v>
   <i type="logical" name="LCORR"> T  </i>
  </separator>
  <i type="logical" name="GGA_COMPAT"> T  </i>
  <i type="logical" name="LBERRY"> F  </i>
  <i type="int" name="ICORELEVEL">     0</i>
  <i type="logical" name="LDAU"> F  </i>
  <i type="int" name="I_CONSTRAINED_M">     0</i>
  <separator name="electronic exchange-correlation" >
   <i type="string" name="GGA">PE</i>
   <i type="int" name="VOSKOWN">     0</i>
   <i type="logical" name="LHFCALC"> F  </i>
   <i type="string" name="PRECFOCK"></i>
   <i type="logical" name="LSYMGRAD"> F  </i>
   <i type="logical" name="LHFONE"> F  </i>
   <i type="logical" name="LRHFCALC"> F  </i>
   <i type="logical" name="LTHOMAS"> F  </i>
   <i type="logical" name="LMODELHF"> F  </i>
   <i name="ENCUT4O">     -1.00000000</i>
   <i type="int" name="EXXOEP">     0</i>
   <i type="int" name="FOURORBIT">     0</i>
   <i name="AEXX">      0.00000000</i>
   <i name="HFALPHA">      0.00000000</i>
   <i name="MCALPHA">      0.00000000</i>
   <i name="ALDAX">      1.00000000</i>
   <i name="AGGAX">      1.00000000</i>
   <i name="ALDAC">      1.00000000</i>
   <i name="AGGAC">      1.00000000</i>
   <i type="int" name="NKREDX">     1</i>
   <i type="int" name="NKREDY">     1</i>
   <i type="int" name="NKREDZ">     1</i>
   <i type="logical" name="SHIFTRED"> F  </i>
   <i type="logical" name="ODDONLY"> F  </i>
   <i type="logical" name="EVENONLY"> F  </i>
   <i type="int" name="LMAXFOCK">     0</i>
   <i type="int" name="NMAXFOCKAE">     0</i>
   <i type="logical" name="LFOCKAEDFT"> F  </i>
   <i name="HFSCREEN">      0.00000000</i>
   <i name="HFSCREENC">      0.00000000</i>
   <i type="int" name="NBANDSGWLOW">     0</i>
  </separator>
  <separator name="vdW DFT" >
   <i type="logical" name="LUSE_VDW"> F  </i>
   <i name="Zab_VDW">     -0.84910000</i>
   <i name="PARAM1">      0.12340000</i>
   <i name="PARAM2">      1.00000000</i>
   <i name="PARAM3">      0.00000000</i>
  </separator>
  <separator name="model GW" >
   <i type="int" name="MODEL_GW">     0</i>
   <i name="MODEL_EPS0">      5.96368893</i>
   <i name="MODEL_ALPHA">      1.00000000</i>
  </separator>
  <separator name="linear response parameters" >
   <i type="logical" name="LEPSILON"> F  </i>
   <i type="logical" name="LRPA"> F  </i>
   <i type="logical" name="LNABLA"> F  </i>
   <i type="logical" name="LVEL"> F  </i>
   <i type="int" name="KINTER">     0</i>
   <i name="CSHIFT">      0.10000000</i>
   <i name="OMEGAMAX">     -1.00000000</i>
   <i name="DEG_THRESHOLD">      0.00200000</i>
   <i name="RTIME">     -0.10000000</i>
   <i name="WPLASMAI">      0.00000000</i>
   <v name="DFIELD">      0.00000000      0.00000000      0.00000000</v>
   <v name="WPLASMA">      0.00000000      0.00000000      0.00000000      0.00000000      0.00000000      0.00000000      0.00000000      0.00000000      0.00000000</v>
  </separator>
  <separator name="orbital magnetization" >
   <i type="logical" name="NUCIND"> F  </i>
   <v name="MAGPOS">      0.00000000      0.00000000      0.00000000</v>
   <i type="logical" name="LNICSALL"> T  </i>
   <i type="logical" name="ORBITALMAG"> F  </i>
   <i type="logical" name="LMAGBLOCH"> F  </i>
   <i type="logical" name="LCHIMAG"> F  </i>
   <i type="logical" name="LGAUGE"> T  </i>
   <i type="int" name="MAGATOM">     0</i>
   <v name="MAGDIPOL">      0.00000000      0.00000000      0.00000000</v>
   <v name="AVECCONST">      0.00000000      0.00000000      0.00000000</v>
  </separator>
  <separator name="response functions" >
   <i type="logical" name="LADDER"> F  </i>
   <i type="logical" name="LRPAFORCE"> F  </i>
   <i type="logical" name="LFXC"> F  </i>
   <i type="logical" name="LHARTREE"> T  </i>
   <i type="int" name="IBSE">     0</i>
   <v type="int" name="KPOINT">    -1     0     0     0</v>
   <i type="logical" name="LTCTE"> F  </i>
   <i type="logical" name="LTETE"> F  </i>
   <i type="logical" name="LTRIPLET"> F  </i>
   <i type="logical" name="LFXCEPS"> F  </i>
   <i type="logical" name="LFXHEG"> F  </i>
   <i type="int" name="NATURALO">     2</i>
   <i type="logical" name="L2ORDER"> F  </i>
   <i type="logical" name="LMP2LT"> F  </i>
   <i type="logical" name="LUSEW"> F  </i>
   <i name="ENCUTGW">     -2.00000000</i>
   <i name="ENCUTGWSOFT">     -2.00000000</i>
   <i name="ENCUTLF">     -1.00000000</i>
   <i type="int" name="LMAXMP2">    -1</i>
   <i name="SCISSOR">      0.00000000</i>
   <i type="int" name="NOMEGA">     0</i>
   <i type="int" name="NOMEGAR">     0</i>
   <i type="int" name="NBANDSGW">    -1</i>
   <i type="int" name="NBANDSO">    -1</i>
   <i type="int" name="NBANDSV">    -1</i>
   <i type="int" name="NELM">   200</i>
   <i type="int" name="NELMHF">     1</i>
   <i type="int" name="DIM">     3</i>
   <i type="int" name="ANTIRES">     0</i>
   <i name="OMEGAMAX">    -30.00000000</i>
   <i name="OMEGAMIN">    -30.00000000</i>
   <i name="OMEGATL">   -200.00000000</i>
   <i type="int" name="OMEGAGRID">   140</i>
   <i name="CSHIFT">     -0.10000000</i>
   <i type="logical" name="SELFENERGY"> F  </i>
   <i type="logical" name="LSPECTRAL"> F  </i>
   <i type="logical" name="LSPECTRALGW"> F  </i>
   <i type="logical" name="LSINGLES"> F  </i>
   <i type="logical" name="LFERMIGW"> F  </i>
   <i type="logical" name="ODDONLYGW"> F  </i>
   <i type="logical" name="EVENONLYGW"> F  </i>
   <i type="int" name="NKREDLFX">     1</i>
   <i type="int" name="NKREDLFY">     1</i>
   <i type="int" name="NKREDLFZ">     1</i>
   <i type="int" name="MAXMEM">  2800</i>
   <i type="int" name="TELESCOPE">     0</i>
   <i type="int" name="TAUPAR">     1</i>
   <i type="int" name="OMEGAPAR">    -1</i>
   <i name="LAMBDA">      1.00000000</i>
  </separator>
  <separator name="External order field" >
   <i name="OFIELD_KAPPA">      0.00000000</i>
   <v name="OFIELD_K">      0.00000000      0.00000000      0.00000000</v>
   <i name="OFIELD_Q6_NEAR">      0.00000000</i>
   <i name="OFIELD_Q6_FAR">      0.00000000</i>
   <i name="OFIELD_A">      0.00000000</i>
  </separator>
 </parameters>
 <atominfo>
  <atoms>      12 </atoms>
  <types>       2 </types>
  <array name="atoms" >
   <dimension dim="1">ion</dimension>
   <field type="string">element</field>
   <field type="int">atomtype</field>
   <set>
    <rc><c>Mn</c><c>   1</c></rc>
    <rc><c>Mn</c><c>   1</c></rc>
    <rc><c>Mn</c><c>   1</c></rc>
    <rc><c>Mn</c><c>   1</c></rc>
    <rc><c>O </c><c>   2</c></rc>
    <rc><c>O </c><c>   2</c></rc>
    <rc><c>O </c><c>   2</c></rc>
    <rc><c>O </c><c>   2</c></rc>
    <rc><c>O </c><c>   2</c></rc>
    <rc><c>O </c><c>   2</c></rc>
    <rc><c>O </c><c>   2</c></rc>
    <rc><c>O </c><c>   2</c></rc>
   </set>
  </array>
  <array name="atomtypes" >
   <dimension dim="1">type</dimension>
   <field type="int">atomspertype</field>
   <field type="string">element</field>
   <field>mass</field>
   <field>valence</field>
   <field type="string">pseudopotential</field>
   <set>
    <rc><c>   4</c><c>Mn</c><c>     54.93800000</c><c>     13.00000000</c><c>  PAW_PBE Mn_pv 02Aug2007               </c></rc>
    <rc><c>   8</c><c>O </c><c>     16.00000000</c><c>      6.00000000</c><c>  PAW_PBE O 08Apr2002                   </c></rc>
   </set>
  </array>
 </atominfo>
 <structure name="initialpos" >
  <crystal>
   <varray name="basis" >
    <v>       2.85434681      -0.00000238      -0.00000231 </v>
    <v>      -0.00000843       4.54492934      -0.00001786 </v>
    <v>       0.00000299      -0.00006145       9.19413980 </v>
   </varray>
   <i name="volume">    119.27377864 </i>
   <varray name="rec_basis" >
    <v>       0.35034285       0.00000065      -0.00000011 </v>
    <v>       0.00000018       0.22002542       0.00000147 </v>
    <v>       0.00000009       0.00000043       0.10876493 </v>
   </varray>
  </crystal>
  <varray name="positions" >
   <v>       0.25000138       0.03048329       0.86460731 </v>
   <v>       0.75000181       0.96951742       0.13539271 </v>
   <v>       0.75000058       0.53049089       0.63539220 </v>
   <v>       0.25000127       0.46951019       0.36460838 </v>
   <v>       0.24999900       0.71262490       0.53392601 </v>
   <v>       0.75000019       0.21261304       0.96607129 </v>
   <v>       0.24999749       0.78738770       0.03392861 </v>
   <v>       0.74999758       0.28737644       0.46607476 </v>
   <v>       0.25000141       0.17561156       0.22189687 </v>
   <v>       0.24999910       0.32439125       0.72189599 </v>
   <v>       0.75000086       0.67560644       0.27810335 </v>
   <v>       0.74999934       0.82438787       0.77810351 </v>
  </varray>
 </structure>
 <calculation>
  <scstep>
   <time name="total">   39.99   40.25</time>
   <energy>
    <i name="alphaZ">    466.41413257 </i>
    <i name="ewald">  -7597.90601683 </i>
    <i name="hartreedc">  -3483.66202618 </i>
    <i name="XCdc">    591.52729278 </i>
    <i name="pawpsdc">  16746.52880383 </i>
    <i name="pawaedc"> -17027.08748525 </i>
    <i name="eentropy">     -0.00013083 </i>
    <i name="bandstr">  -1083.08331034 </i>
    <i name="atom">  11559.90638050 </i>
    <i name="e_fr_energy">    172.63777107 </i>
    <i name="e_wo_entrp">    172.63790191 </i>
    <i name="e_0_energy">    172.63783649 </i>
   </energy>
  </scstep>
  <scstep>
   <time name="total">   39.98   40.09</time>
   <energy>
    <i name="e_fr_energy">      3.14063605 </i>
    <i name="e_wo_entrp">      3.14107661 </i>
    <i name="e_0_energy">      3.14085633 </i>
   </energy>
  </scstep>
  <scstep>
   <time name="total">   40.90   41.08</time>
   <energy>
    <i name="e_fr_energy">    -80.75294387 </i>
    <i name="e_wo_entrp">    -80.75249566 </i>
    <i name="e_0_energy">    -80.75271977 </i>
   </energy>
  </scstep>
  <scstep>
   <time name="total">   41.47   41.63</time>
   <energy>
    <i name="e_fr_energy">   -106.34862094 </i>
    <i name="e_wo_entrp">   -106.34839175 </i>
    <i name="e_0_energy">   -106.34850634 </i>
   </energy>
  </scstep>
  <scstep>
   <time name="total">   40.74   40.76</time>
   <energy>
    <i name="e_fr_energy">   -119.68138898 </i>
    <i name="e_wo_entrp">   -119.68128949 </i>
    <i name="e_0_energy">   -119.68133923 </i>
   </energy>
  </scstep>
  <scstep>
   <time name="total">   40.03   40.04</time>
   <energy>
    <i name="e_fr_energy">   -125.60952646 </i>
    <i name="e_wo_entrp">   -125.60952646 </i>
    <i name="e_0_energy">   -125.60952646 </i>
   </energy>
  </scstep>
  <scstep>
   <time name="total">   40.74   40.75</time>
   <energy>
    <i name="e_fr_energy">   -127.85751446 </i>
    <i name="e_wo_entrp">   -127.85751446 </i>
    <i name="e_0_energy">   -127.85751446 </i>
   </energy>
  </scstep>
  <scstep>
   <time name="total">   40.81   40.82</time>
   <energy>
    <i name="e_fr_energy">   -129.39735282 </i>
    <i name="e_wo_entrp">   -129.39735282 </i>
    <i name="e_0_energy">   -129.39735282 </i>
   </energy>
  </scstep>
  <scstep>
   <time name="total">   40.63   40.64</time>
   <energy>
    <i name="e_fr_energy">   -130.14803589 </i>
    <i name="e_wo_entrp">   -130.14803589 </i>
    <i name="e_0_energy">   -130.14803589 </i>
   </energy>
  </scstep>
  <scstep>
   <time name="total">   37.71   37.72</time>
   <energy>
    <i name="e_fr_energy">   -130.51997754 </i>
    <i name="e_wo_entrp">   -130.51997754 </i>
    <i name="e_0_energy">   -130.51997754 </i>
   </energy>
  </scstep>
  <scstep>
   <time name="total">   39.04   39.05</time>
   <energy>
    <i name="e_fr_energy">   -130.69921598 </i>
    <i name="e_wo_entrp">   -130.69921598 </i>
    <i name="e_0_energy">   -130.69921598 </i>
   </energy>
  </scstep>
  <scstep>
   <time name="total">   39.54   39.56</time>
   <energy>
    <i name="e_fr_energy">   -130.80239462 </i>
    <i name="e_wo_entrp">   -130.80239462 </i>
    <i name="e_0_energy">   -130.80239462 </i>
   </energy>
  </scstep>
  <scstep>
   <time name="total">   42.41   42.42</time>
   <energy>
    <i name="e_fr_energy">   -130.85802849 </i>
    <i name="e_wo_entrp">   -130.85802849 </i>
    <i name="e_0_energy">   -130.85802849 </i>
   </energy>
  </scstep>
  <scstep>
   <time name="total">   43.20   43.22</time>
   <energy>
    <i name="e_fr_energy">   -130.88274868 </i>
    <i name="e_wo_entrp">   -130.88274868 </i>
    <i name="e_0_energy">   -130.88274868 </i>
   </energy>
  </scstep>
  <scstep>
   <time name="total">   44.02   44.04</time>
   <energy>
    <i name="e_fr_energy">   -130.89428097 </i>
    <i name="e_wo_entrp">   -130.89428097 </i>
    <i name="e_0_energy">   -130.89428097 </i>
   </energy>
  </scstep>
  <scstep>
   <time name="total">   39.22   39.23</time>
   <energy>
    <i name="e_fr_energy">   -130.89847628 </i>
    <i name="e_wo_entrp">   -130.89847628 </i>
    <i name="e_0_energy">   -130.89847628 </i>
   </energy>
  </scstep>
  <scstep>
   <time name="total">   40.09   40.10</time>
   <energy>
    <i name="e_fr_energy">   -130.90046952 </i>
    <i name="e_wo_entrp">   -130.90046952 </i>
    <i name="e_0_energy">   -130.90046952 </i>
   </energy>
  </scstep>
  <scstep>
   <time name="total">   41.85   41.86</time>
   <energy>
    <i name="e_fr_energy">   -130.90158481 </i>
    <i name="e_wo_entrp">   -130.90158481 </i>
    <i name="e_0_energy">   -130.90158481 </i>
   </energy>
  </scstep>
  <scstep>
   <time name="total">   40.76   40.76</time>
   <energy>
    <i name="e_fr_energy">   -130.90217398 </i>
    <i name="e_wo_entrp">   -130.90217398 </i>
    <i name="e_0_energy">   -130.90217398 </i>
   </energy>
  </scstep>
  <scstep>
   <time name="total">   40.65   40.65</time>
   <energy>
    <i name="e_fr_energy">   -130.90245614 </i>
    <i name="e_wo_entrp">   -130.90245614 </i>
    <i name="e_0_energy">   -130.90245614 </i>
   </energy>
  </scstep>
  <scstep>
   <time name="total">   40.46   40.46</time>
   <energy>
    <i name="e_fr_energy">   -130.90257488 </i>
    <i name="e_wo_entrp">   -130.90257488 </i>
    <i name="e_0_energy">   -130.90257488 </i>
   </energy>
  </scstep>
  <scstep>
   <time name="total">   39.14   39.14</time>
   <energy>
    <i name="e_fr_energy">   -130.90262142 </i>
    <i name="e_wo_entrp">   -130.90262142 </i>
    <i name="e_0_energy">   -130.90262142 </i>
   </energy>
  </scstep>
  <scstep>
   <time name="total">   39.75   39.75</time>
   <energy>
    <i name="e_fr_energy">   -130.90264594 </i>
    <i name="e_wo_entrp">   -130.90264594 </i>
    <i name="e_0_energy">   -130.90264594 </i>
   </energy>
  </scstep>
  <scstep>
   <time name="total">   43.05   43.06</time>
   <energy>
    <i name="e_fr_energy">   -130.90265768 </i>
    <i name="e_wo_entrp">   -130.90265768 </i>
    <i name="e_0_energy">   -130.90265768 </i>
   </energy>
  </scstep>
  <scstep>
   <time name="total">   45.15   45.16</time>
   <energy>
    <i name="e_fr_energy">   -130.90266292 </i>
    <i name="e_wo_entrp">   -130.90266292 </i>
    <i name="e_0_energy">   -130.90266292 </i>
   </energy>
  </scstep>
  <scstep>
   <time name="total">   42.26   42.27</time>
   <energy>
    <i name="e_fr_energy">   -130.90266574 </i>
    <i name="e_wo_entrp">   -130.90266574 </i>
    <i name="e_0_energy">   -130.90266574 </i>
   </energy>
  </scstep>
  <scstep>
   <time name="total">   47.29   47.31</time>
   <energy>
    <i name="alphaZ">    466.41413257 </i>
    <i name="ewald">  -7597.90601683 </i>
    <i name="hartreedc">  -3528.34845171 </i>
    <i name="XCdc">    592.92834359 </i>
    <i name="pawpsdc">  13060.18693260 </i>
    <i name="pawaedc"> -13332.25160952 </i>
    <i name="eentropy">     -0.00000000 </i>
    <i name="bandstr">  -1351.83237790 </i>
    <i name="atom">  11559.90638050 </i>
    <i name="e_fr_energy">   -130.90266671 </i>
    <i name="e_wo_entrp">   -130.90266671 </i>
    <i name="e_0_energy">   -130.90266671 </i>
   </energy>
  </scstep>
  <structure>
   <crystal>
    <varray name="basis" >
     <v>       2.85434681      -0.00000238      -0.00000231 </v>
     <v>      -0.00000843       4.54492934      -0.00001786 </v>
     <v>       0.00000299      -0.00006145       9.19413980 </v>
    </varray>
    <i name="volume">    119.27377864 </i>
    <varray name="rec_basis" >
     <v>       0.35034285       0.00000065      -0.00000011 </v>
     <v>       0.00000018       0.22002542       0.00000147 </v>
     <v>       0.00000009       0.00000043       0.10876493 </v>
    </varray>
   </crystal>
   <varray name="positions" >
    <v>       0.25000138       0.03048329       0.86460731 </v>
    <v>       0.75000181       0.96951742       0.13539271 </v>
    <v>       0.75000058       0.53049089       0.63539220 </v>
    <v>       0.25000127       0.46951019       0.36460838 </v>
    <v>       0.24999900       0.71262490       0.53392601 </v>
    <v>       0.75000019       0.21261304       0.96607129 </v>
    <v>       0.24999749       0.78738770       0.03392861 </v>
    <v>       0.74999758       0.28737644       0.46607476 </v>
    <v>       0.25000141       0.17561156       0.22189687 </v>
    <v>       0.24999910       0.32439125       0.72189599 </v>
    <v>       0.75000086       0.67560644       0.27810335 </v>
    <v>       0.74999934       0.82438787       0.77810351 </v>
   </varray>
  </structure>
  <varray name="forces" >
   <v>      -0.00001449       0.01165268      -0.00563693 </v>
   <v>       0.00000454      -0.01172548       0.00565052 </v>
   <v>      -0.00000072       0.01077873       0.00515335 </v>
   <v>       0.00001710      -0.01089220      -0.00519207 </v>
   <v>       0.00000142      -0.00166574      -0.00972205 </v>
   <v>      -0.00002110      -0.00087632       0.01023689 </v>
   <v>       0.00002653       0.00088694      -0.01022238 </v>
   <v>       0.00000582       0.00166180       0.00968131 </v>
   <v>      -0.00002827       0.00812199      -0.02507045 </v>
   <v>       0.00001280      -0.00821197      -0.02497598 </v>
   <v>      -0.00001898       0.00834710       0.02497018 </v>
   <v>       0.00001535      -0.00807753       0.02512760 </v>
  </varray>
  <varray name="stress" >
   <v>       0.34630334       0.00052573       0.00069040 </v>
   <v>       0.00052602      -3.15459497       0.04254459 </v>
   <v>       0.00068971       0.04254112       3.99618266 </v>
  </varray>
  <energy>
   <i name="e_fr_energy">   -130.90266671 </i>
   <i name="e_wo_entrp">   -130.90266671 </i>
   <i name="e_0_energy">     -0.00000000 </i>
  </energy>
  <time name="totalsc"> 1192.79 1194.83</time>
  <eigenvalues>
   <array>
    <dimension dim="1">band</dimension>
    <dimension dim="2">kpoint</dimension>
    <dimension dim="3">spin</dimension>
    <field>eigene</field>
    <field>occ</field>
    <set>
     <set comment="spin 1">
      <set comment="kpoint 1">
       <r>  -48.6666    1.0000 </r>
       <r>  -48.6665    1.0000 </r>
       <r>  -48.6448    1.0000 </r>
       <r>  -48.6446    1.0000 </r>
       <r>  -48.5970    1.0000 </r>
       <r>  -48.5969    1.0000 </r>
       <r>  -44.7703    1.0000 </r>
       <r>  -44.7701    1.0000 </r>
       <r>  -44.7419    1.0000 </r>
       <r>  -44.7414    1.0000 </r>
       <r>  -44.6067    1.0000 </r>
       <r>  -44.6066    1.0000 </r>
       <r>  -16.7714    1.0000 </r>
       <r>  -16.1089    1.0000 </r>
       <r>  -15.8720    1.0000 </r>
       <r>  -15.0494    1.0000 </r>
       <r>  -14.7609    1.0000 </r>
       <r>  -14.7172    1.0000 </r>
       <r>  -14.5928    1.0000 </r>
       <r>  -14.5566    1.0000 </r>
       <r>   -3.4285    1.0000 </r>
       <r>   -2.9008    1.0000 </r>
       <r>   -2.5309    1.0000 </r>
       <r>   -2.3467    1.0000 </r>
       <r>   -1.7942    1.0000 </r>
       <r>   -1.7445    1.0000 </r>
       <r>   -1.6600    1.0000 </r>
       <r>   -1.6066    1.0000 </r>
       <r>   -1.2305    1.0000 </r>
       <r>   -1.1553    1.0000 </r>
       <r>   -0.9368    1.0000 </r>
       <r>   -0.6459    1.0000 </r>
       <r>   -0.0992    1.0000 </r>
       <r>   -0.0430    1.0000 </r>
       <r>    0.5072    1.0000 </r>
       <r>    0.7424    1.0000 </r>
       <r>    0.7547    1.0000 </r>
       <r>    0.9424    1.0000 </r>
       <r>    1.2588    1.0000 </r>
       <r>    1.4782    1.0000 </r>
       <r>    1.7261    1.0000 </r>
       <r>    2.0168    1.0000 </r>
       <r>    2.2936    1.0000 </r>
       <r>    2.3719    1.0000 </r>
       <r>    2.5068    1.0000 </r>
       <r>    2.5461    1.0000 </r>
       <r>    2.6792    1.0000 </r>
       <r>    2.9919    1.0000 </r>
       <r>    3.1566    1.0000 </r>
       <r>    3.2671    1.0000 </r>
       <r>    5.2873    0.0000 </r>
       <r>    5.5784    0.0000 </r>
       <r>    5.5939    0.0000 </r>
       <r>    5.9711    0.0000 </r>
       <r>    6.1861    0.0000 </r>
       <r>    6.1971    0.0000 </r>
       <r>    6.7578    0.0000 </r>
       <r>    6.8546    0.0000 </r>
       <r>    6.9585    0.0000 </r>
       <r>    7.6238    0.0000 </r>
      </set>
      <set comment="kpoint 2">
       <r>  -48.6755    1.0000 </r>
       <r>  -48.6754    1.0000 </r>
       <r>  -48.6437    1.0000 </r>
       <r>  -48.6435    1.0000 </r>
       <r>  -48.5960    1.0000 </r>
       <r>  -48.5959    1.0000 </r>
       <r>  -44.7815    1.0000 </r>
       <r>  -44.7813    1.0000 </r>
       <r>  -44.7405    1.0000 </r>
       <r>  -44.7400    1.0000 </r>
       <r>  -44.6053    1.0000 </r>
       <r>  -44.6052    1.0000 </r>
       <r>  -16.6904    1.0000 </r>
       <r>  -16.0480    1.0000 </r>
       <r>  -15.8118    1.0000 </r>
       <r>  -15.0218    1.0000 </r>
       <r>  -14.7700    1.0000 </r>
       <r>  -14.7260    1.0000 </r>
       <r>  -14.6138    1.0000 </r>
       <r>  -14.5744    1.0000 </r>
       <r>   -3.3131    1.0000 </r>
       <r>   -2.7983    1.0000 </r>
       <r>   -2.4583    1.0000 </r>
       <r>   -2.2757    1.0000 </r>
       <r>   -1.9060    1.0000 </r>
       <r>   -1.7079    1.0000 </r>
       <r>   -1.6831    1.0000 </r>
       <r>   -1.6591    1.0000 </r>
       <r>   -1.3623    1.0000 </r>
       <r>   -1.1001    1.0000 </r>
       <r>   -0.8366    1.0000 </r>
       <r>   -0.5151    1.0000 </r>
       <r>   -0.4132    1.0000 </r>
       <r>    0.2204    1.0000 </r>
       <r>    0.3572    1.0000 </r>
       <r>    0.6345    1.0000 </r>
       <r>    0.7701    1.0000 </r>
       <r>    0.9104    1.0000 </r>
       <r>    1.0145    1.0000 </r>
       <r>    1.1396    1.0000 </r>
       <r>    1.8445    1.0000 </r>
       <r>    1.9119    1.0000 </r>
       <r>    2.2289    1.0000 </r>
       <r>    2.3608    1.0000 </r>
       <r>    2.5480    1.0000 </r>
       <r>    2.6390    1.0000 </r>
       <r>    2.6460    1.0000 </r>
       <r>    2.8942    1.0000 </r>
       <r>    3.1506    1.0000 </r>
       <r>    3.2364    1.0000 </r>
       <r>    5.2360    0.0000 </r>
       <r>    5.6632    0.0000 </r>
       <r>    5.7632    0.0000 </r>
       <r>    6.1025    0.0000 </r>
       <r>    6.1995    0.0000 </r>
       <r>    6.3248    0.0000 </r>
       <r>    6.7078    0.0000 </r>
       <r>    6.7349    0.0000 </r>
       <r>    6.8446    0.0000 </r>
       <r>    7.4851    0.0000 </r>
      </set>
      <set comment="kpoint 3">
       <r>  -48.6992    1.0000 </r>
       <r>  -48.6991    1.0000 </r>
       <r>  -48.6407    1.0000 </r>
       <r>  -48.6406    1.0000 </r>
       <r>  -48.5932    1.0000 </r>
       <r>  -48.5931    1.0000 </r>
       <r>  -44.8113    1.0000 </r>
       <r>  -44.8111    1.0000 </r>
       <r>  -44.7367    1.0000 </r>
       <r>  -44.7363    1.0000 </r>
       <r>  -44.6014    1.0000 </r>
       <r>  -44.6013    1.0000 </r>
       <r>  -16.4598    1.0000 </r>
       <r>  -15.8797    1.0000 </r>
       <r>  -15.6462    1.0000 </r>
       <r>  -14.9563    1.0000 </r>
       <r>  -14.7934    1.0000 </r>
       <r>  -14.7501    1.0000 </r>
       <r>  -14.6732    1.0000 </r>
       <r>  -14.6234    1.0000 </r>
       <r>   -2.9887    1.0000 </r>
       <r>   -2.5251    1.0000 </r>
       <r>   -2.2687    1.0000 </r>
       <r>   -2.0971    1.0000 </r>
       <r>   -2.0072    1.0000 </r>
       <r>   -1.9348    1.0000 </r>
       <r>   -1.7313    1.0000 </r>
       <r>   -1.6623    1.0000 </r>
       <r>   -1.3121    1.0000 </r>
       <r>   -1.1330    1.0000 </r>
       <r>   -0.8484    1.0000 </r>
       <r>   -0.4815    1.0000 </r>
       <r>   -0.4318    1.0000 </r>
       <r>   -0.3004    1.0000 </r>
       <r>    0.1139    1.0000 </r>
       <r>    0.5596    1.0000 </r>
       <r>    0.6963    1.0000 </r>
       <r>    0.8627    1.0000 </r>
       <r>    0.9044    1.0000 </r>
       <r>    0.9358    1.0000 </r>
       <r>    1.5276    1.0000 </r>
       <r>    1.7882    1.0000 </r>
       <r>    2.1692    1.0000 </r>
       <r>    2.2177    1.0000 </r>
       <r>    2.4885    1.0000 </r>
       <r>    2.4938    1.0000 </r>
       <r>    2.7672    1.0000 </r>
       <r>    2.8034    1.0000 </r>
       <r>    3.1349    1.0000 </r>
       <r>    3.1819    1.0000 </r>
       <r>    5.2795    0.0000 </r>
       <r>    5.8104    0.0000 </r>
       <r>    5.9250    0.0000 </r>
       <r>    6.1064    0.0000 </r>
       <r>    6.3981    0.0000 </r>
       <r>    6.4456    0.0000 </r>
       <r>    6.5859    0.0000 </r>
       <r>    6.6137    0.0000 </r>
       <r>    6.6760    0.0000 </r>
       <r>    7.2261    0.0000 </r>
      </set>
      <set comment="kpoint 4">
       <r>  -48.7302    1.0000 </r>
       <r>  -48.7301    1.0000 </r>
       <r>  -48.6370    1.0000 </r>
       <r>  -48.6369    1.0000 </r>
       <r>  -48.5895    1.0000 </r>
       <r>  -48.5893    1.0000 </r>
       <r>  -44.8502    1.0000 </r>
       <r>  -44.8500    1.0000 </r>
       <r>  -44.7318    1.0000 </r>
       <r>  -44.7316    1.0000 </r>
       <r>  -44.5962    1.0000 </r>
       <r>  -44.5961    1.0000 </r>
       <r>  -16.1177    1.0000 </r>
       <r>  -15.6441    1.0000 </r>
       <r>  -15.4182    1.0000 </r>
       <r>  -14.9019    1.0000 </r>
       <r>  -14.8220    1.0000 </r>
       <r>  -14.7849    1.0000 </r>
       <r>  -14.7588    1.0000 </r>
       <r>  -14.6905    1.0000 </r>
       <r>   -2.5411    1.0000 </r>
       <r>   -2.2624    1.0000 </r>
       <r>   -2.1765    1.0000 </r>
       <r>   -2.0536    1.0000 </r>
       <r>   -2.0265    1.0000 </r>
       <r>   -1.9394    1.0000 </r>
       <r>   -1.8450    1.0000 </r>
       <r>   -1.7037    1.0000 </r>
       <r>   -1.2455    1.0000 </r>
       <r>   -1.1877    1.0000 </r>
       <r>   -1.0834    1.0000 </r>
       <r>   -0.6848    1.0000 </r>
       <r>   -0.6203    1.0000 </r>
       <r>   -0.0632    1.0000 </r>
       <r>   -0.0068    1.0000 </r>
       <r>    0.1844    1.0000 </r>
       <r>    0.5169    1.0000 </r>
       <r>    0.6001    1.0000 </r>
       <r>    0.8870    1.0000 </r>
       <r>    1.0257    1.0000 </r>
       <r>    1.4719    1.0000 </r>
       <r>    1.5961    1.0000 </r>
       <r>    1.8549    1.0000 </r>
       <r>    2.0751    1.0000 </r>
       <r>    2.2166    1.0000 </r>
       <r>    2.3836    1.0000 </r>
       <r>    2.6217    1.0000 </r>
       <r>    2.8642    1.0000 </r>
       <r>    3.0279    1.0000 </r>
       <r>    3.1136    1.0000 </r>
       <r>    5.4047    0.0000 </r>
       <r>    5.8194    0.0000 </r>
       <r>    5.9207    0.0000 </r>
       <r>    5.9553    0.0000 </r>
       <r>    6.3946    0.0000 </r>
       <r>    6.4148    0.0000 </r>
       <r>    6.4917    0.0000 </r>
       <r>    6.6727    0.0000 </r>
       <r>    6.6920    0.0000 </r>
       <r>    7.0808    0.0000 </r>
      </set>
      <set comment="kpoint 5">
       <r>  -48.7586    1.0000 </r>
       <r>  -48.7584    1.0000 </r>
       <r>  -48.6336    1.0000 </r>
       <r>  -48.6334    1.0000 </r>
       <r>  -48.5860    1.0000 </r>
       <r>  -48.5858    1.0000 </r>
       <r>  -44.8858    1.0000 </r>
       <r>  -44.8856    1.0000 </r>
       <r>  -44.7274    1.0000 </r>
       <r>  -44.7272    1.0000 </r>
       <r>  -44.5914    1.0000 </r>
       <r>  -44.5913    1.0000 </r>
       <r>  -15.7244    1.0000 </r>
       <r>  -15.3983    1.0000 </r>
       <r>  -15.1928    1.0000 </r>
       <r>  -14.9228    1.0000 </r>
       <r>  -14.8692    1.0000 </r>
       <r>  -14.8490    1.0000 </r>
       <r>  -14.8129    1.0000 </r>
       <r>  -14.7510    1.0000 </r>
       <r>   -2.6578    1.0000 </r>
       <r>   -2.3020    1.0000 </r>
       <r>   -2.1973    1.0000 </r>
       <r>   -2.1897    1.0000 </r>
       <r>   -1.8467    1.0000 </r>
       <r>   -1.8360    1.0000 </r>
       <r>   -1.7719    1.0000 </r>
       <r>   -1.5834    1.0000 </r>
       <r>   -1.3814    1.0000 </r>
       <r>   -1.2555    1.0000 </r>
       <r>   -0.7538    1.0000 </r>
       <r>   -0.6963    1.0000 </r>
       <r>   -0.4439    1.0000 </r>
       <r>   -0.2915    1.0000 </r>
       <r>    0.1134    1.0000 </r>
       <r>    0.2363    1.0000 </r>
       <r>    0.4125    1.0000 </r>
       <r>    0.5293    1.0000 </r>
       <r>    0.7578    1.0000 </r>
       <r>    0.9022    1.0000 </r>
       <r>    1.3554    1.0000 </r>
       <r>    1.4795    1.0000 </r>
       <r>    1.5976    1.0000 </r>
       <r>    1.6421    1.0000 </r>
       <r>    1.9761    1.0000 </r>
       <r>    2.2215    1.0000 </r>
       <r>    2.3635    1.0000 </r>
       <r>    2.8201    1.0000 </r>
       <r>    3.0138    1.0000 </r>
       <r>    3.0142    1.0000 </r>
       <r>    5.5235    0.0000 </r>
       <r>    5.6550    0.0000 </r>
       <r>    5.8413    0.0000 </r>
       <r>    6.0327    0.0000 </r>
       <r>    6.3134    0.0000 </r>
       <r>    6.3809    0.0000 </r>
       <r>    6.4085    0.0000 </r>
       <r>    6.6169    0.0000 </r>
       <r>    6.6377    0.0000 </r>
       <r>    7.0514    0.0000 </r>
      </set>
      <set comment="kpoint 6">
       <r>  -48.7754    1.0000 </r>
       <r>  -48.7752    1.0000 </r>
       <r>  -48.6317    1.0000 </r>
       <r>  -48.6314    1.0000 </r>
       <r>  -48.5838    1.0000 </r>
       <r>  -48.5837    1.0000 </r>
       <r>  -44.9069    1.0000 </r>
       <r>  -44.9066    1.0000 </r>
       <r>  -44.7248    1.0000 </r>
       <r>  -44.7247    1.0000 </r>
       <r>  -44.5885    1.0000 </r>
       <r>  -44.5884    1.0000 </r>
       <r>  -15.3546    1.0000 </r>
       <r>  -15.1946    1.0000 </r>
       <r>  -15.0722    1.0000 </r>
       <r>  -15.0713    1.0000 </r>
       <r>  -14.9457    1.0000 </r>
       <r>  -14.8605    1.0000 </r>
       <r>  -14.8541    1.0000 </r>
       <r>  -14.7871    1.0000 </r>
       <r>   -2.9545    1.0000 </r>
       <r>   -2.5677    1.0000 </r>
       <r>   -2.3200    1.0000 </r>
       <r>   -2.2348    1.0000 </r>
       <r>   -1.7674    1.0000 </r>
       <r>   -1.6024    1.0000 </r>
       <r>   -1.5743    1.0000 </r>
       <r>   -1.4495    1.0000 </r>
       <r>   -1.2594    1.0000 </r>
       <r>   -1.0608    1.0000 </r>
       <r>   -0.9759    1.0000 </r>
       <r>   -0.6243    1.0000 </r>
       <r>   -0.2179    1.0000 </r>
       <r>   -0.1667    1.0000 </r>
       <r>    0.0144    1.0000 </r>
       <r>    0.2520    1.0000 </r>
       <r>    0.6072    1.0000 </r>
       <r>    0.6371    1.0000 </r>
       <r>    0.7199    1.0000 </r>
       <r>    0.9321    1.0000 </r>
       <r>    1.1152    1.0000 </r>
       <r>    1.2794    1.0000 </r>
       <r>    1.3879    1.0000 </r>
       <r>    1.4862    1.0000 </r>
       <r>    1.6046    1.0000 </r>
       <r>    1.7349    1.0000 </r>
       <r>    2.3820    1.0000 </r>
       <r>    2.8111    1.0000 </r>
       <r>    2.9247    1.0000 </r>
       <r>    3.0526    1.0000 </r>
       <r>    5.5919    0.0000 </r>
       <r>    5.6463    0.0000 </r>
       <r>    5.7722    0.0000 </r>
       <r>    6.0853    0.0000 </r>
       <r>    6.1801    0.0000 </r>
       <r>    6.2579    0.0000 </r>
       <r>    6.4157    0.0000 </r>
       <r>    6.5698    0.0000 </r>
       <r>    6.5905    0.0000 </r>
       <r>    7.0504    0.0000 </r>
      </set>
      <set comment="kpoint 7">
       <r>  -48.6666    1.0000 </r>
       <r>  -48.6665    1.0000 </r>
       <r>  -48.6448    1.0000 </r>
       <r>  -48.6446    1.0000 </r>
       <r>  -48.5970    1.0000 </r>
       <r>  -48.5969    1.0000 </r>
       <r>  -44.7703    1.0000 </r>
       <r>  -44.7701    1.0000 </r>
       <r>  -44.7419    1.0000 </r>
       <r>  -44.7414    1.0000 </r>
       <r>  -44.6068    1.0000 </r>
       <r>  -44.6066    1.0000 </r>
       <r>  -16.7229    1.0000 </r>
       <r>  -16.1146    1.0000 </r>
       <r>  -15.8324    1.0000 </r>
       <r>  -15.0857    1.0000 </r>
       <r>  -14.7642    1.0000 </r>
       <r>  -14.7309    1.0000 </r>
       <r>  -14.6163    1.0000 </r>
       <r>  -14.5923    1.0000 </r>
       <r>   -3.4047    1.0000 </r>
       <r>   -2.8688    1.0000 </r>
       <r>   -2.5367    1.0000 </r>
       <r>   -2.3016    1.0000 </r>
       <r>   -1.9226    1.0000 </r>
       <r>   -1.6564    1.0000 </r>
       <r>   -1.6399    1.0000 </r>
       <r>   -1.6102    1.0000 </r>
       <r>   -1.2366    1.0000 </r>
       <r>   -1.1070    1.0000 </r>
       <r>   -0.9427    1.0000 </r>
       <r>   -0.5519    1.0000 </r>
       <r>   -0.1418    1.0000 </r>
       <r>   -0.0583    1.0000 </r>
       <r>    0.6231    1.0000 </r>
       <r>    0.7732    1.0000 </r>
       <r>    0.7748    1.0000 </r>
       <r>    0.9771    1.0000 </r>
       <r>    1.2673    1.0000 </r>
       <r>    1.5256    1.0000 </r>
       <r>    1.6591    1.0000 </r>
       <r>    1.9085    1.0000 </r>
       <r>    2.2015    1.0000 </r>
       <r>    2.3358    1.0000 </r>
       <r>    2.4017    1.0000 </r>
       <r>    2.5719    1.0000 </r>
       <r>    2.5886    1.0000 </r>
       <r>    2.9870    1.0000 </r>
       <r>    3.1005    1.0000 </r>
       <r>    3.3276    1.0000 </r>
       <r>    5.2851    0.0000 </r>
       <r>    5.4793    0.0000 </r>
       <r>    5.5577    0.0000 </r>
       <r>    6.0644    0.0000 </r>
       <r>    6.1849    0.0000 </r>
       <r>    6.2922    0.0000 </r>
       <r>    6.7715    0.0000 </r>
       <r>    6.8842    0.0000 </r>
       <r>    6.9530    0.0000 </r>
       <r>    7.6228    0.0000 </r>
      </set>
      <set comment="kpoint 8">
       <r>  -48.6755    1.0000 </r>
       <r>  -48.6754    1.0000 </r>
       <r>  -48.6437    1.0000 </r>
       <r>  -48.6435    1.0000 </r>
       <r>  -48.5960    1.0000 </r>
       <r>  -48.5959    1.0000 </r>
       <r>  -44.7815    1.0000 </r>
       <r>  -44.7813    1.0000 </r>
       <r>  -44.7405    1.0000 </r>
       <r>  -44.7400    1.0000 </r>
       <r>  -44.6053    1.0000 </r>
       <r>  -44.6052    1.0000 </r>
       <r>  -16.6430    1.0000 </r>
       <r>  -16.0530    1.0000 </r>
       <r>  -15.7734    1.0000 </r>
       <r>  -15.0552    1.0000 </r>
       <r>  -14.7735    1.0000 </r>
       <r>  -14.7400    1.0000 </r>
       <r>  -14.6360    1.0000 </r>
       <r>  -14.6094    1.0000 </r>
       <r>   -3.2906    1.0000 </r>
       <r>   -2.7694    1.0000 </r>
       <r>   -2.4701    1.0000 </r>
       <r>   -2.2508    1.0000 </r>
       <r>   -1.9567    1.0000 </r>
       <r>   -1.7442    1.0000 </r>
       <r>   -1.6670    1.0000 </r>
       <r>   -1.6311    1.0000 </r>
       <r>   -1.3167    1.0000 </r>
       <r>   -1.1385    1.0000 </r>
       <r>   -0.7980    1.0000 </r>
       <r>   -0.4482    1.0000 </r>
       <r>   -0.3272    1.0000 </r>
       <r>    0.1310    1.0000 </r>
       <r>    0.3800    1.0000 </r>
       <r>    0.7349    1.0000 </r>
       <r>    0.8250    1.0000 </r>
       <r>    0.8843    1.0000 </r>
       <r>    1.0676    1.0000 </r>
       <r>    1.1696    1.0000 </r>
       <r>    1.6807    1.0000 </r>
       <r>    1.9530    1.0000 </r>
       <r>    2.1841    1.0000 </r>
       <r>    2.3457    1.0000 </r>
       <r>    2.3656    1.0000 </r>
       <r>    2.5334    1.0000 </r>
       <r>    2.5997    1.0000 </r>
       <r>    2.9781    1.0000 </r>
       <r>    3.0985    1.0000 </r>
       <r>    3.3036    1.0000 </r>
       <r>    5.2333    0.0000 </r>
       <r>    5.6141    0.0000 </r>
       <r>    5.7059    0.0000 </r>
       <r>    6.1339    0.0000 </r>
       <r>    6.2481    0.0000 </r>
       <r>    6.3846    0.0000 </r>
       <r>    6.7167    0.0000 </r>
       <r>    6.7648    0.0000 </r>
       <r>    6.8440    0.0000 </r>
       <r>    7.4814    0.0000 </r>
      </set>
      <set comment="kpoint 9">
       <r>  -48.6992    1.0000 </r>
       <r>  -48.6991    1.0000 </r>
       <r>  -48.6407    1.0000 </r>
       <r>  -48.6406    1.0000 </r>
       <r>  -48.5932    1.0000 </r>
       <r>  -48.5931    1.0000 </r>
       <r>  -44.8113    1.0000 </r>
       <r>  -44.8111    1.0000 </r>
       <r>  -44.7367    1.0000 </r>
       <r>  -44.7363    1.0000 </r>
       <r>  -44.6014    1.0000 </r>
       <r>  -44.6013    1.0000 </r>
       <r>  -16.4159    1.0000 </r>
       <r>  -15.8827    1.0000 </r>
       <r>  -15.6114    1.0000 </r>
       <r>  -14.9806    1.0000 </r>
       <r>  -14.7978    1.0000 </r>
       <r>  -14.7655    1.0000 </r>
       <r>  -14.6917    1.0000 </r>
       <r>  -14.6563    1.0000 </r>
       <r>   -2.9716    1.0000 </r>
       <r>   -2.5100    1.0000 </r>
       <r>   -2.2963    1.0000 </r>
       <r>   -2.1436    1.0000 </r>
       <r>   -2.0396    1.0000 </r>
       <r>   -1.9526    1.0000 </r>
       <r>   -1.7075    1.0000 </r>
       <r>   -1.6715    1.0000 </r>
       <r>   -1.2893    1.0000 </r>
       <r>   -1.1322    1.0000 </r>
       <r>   -0.7897    1.0000 </r>
       <r>   -0.4818    1.0000 </r>
       <r>   -0.3846    1.0000 </r>
       <r>   -0.1363    1.0000 </r>
       <r>    0.1272    1.0000 </r>
       <r>    0.4861    1.0000 </r>
       <r>    0.6875    1.0000 </r>
       <r>    0.8243    1.0000 </r>
       <r>    0.9121    1.0000 </r>
       <r>    1.0674    1.0000 </r>
       <r>    1.5003    1.0000 </r>
       <r>    1.7955    1.0000 </r>
       <r>    2.0582    1.0000 </r>
       <r>    2.2423    1.0000 </r>
       <r>    2.3130    1.0000 </r>
       <r>    2.4918    1.0000 </r>
       <r>    2.6071    1.0000 </r>
       <r>    2.9783    1.0000 </r>
       <r>    3.0732    1.0000 </r>
       <r>    3.2705    1.0000 </r>
       <r>    5.2846    0.0000 </r>
       <r>    5.8089    0.0000 </r>
       <r>    5.8312    0.0000 </r>
       <r>    6.1455    0.0000 </r>
       <r>    6.3805    0.0000 </r>
       <r>    6.5006    0.0000 </r>
       <r>    6.5869    0.0000 </r>
       <r>    6.6220    0.0000 </r>
       <r>    6.6987    0.0000 </r>
       <r>    7.2120    0.0000 </r>
      </set>
      <set comment="kpoint 10">
       <r>  -48.7302    1.0000 </r>
       <r>  -48.7301    1.0000 </r>
       <r>  -48.6370    1.0000 </r>
       <r>  -48.6368    1.0000 </r>
       <r>  -48.5895    1.0000 </r>
       <r>  -48.5894    1.0000 </r>
       <r>  -44.8502    1.0000 </r>
       <r>  -44.8500    1.0000 </r>
       <r>  -44.7318    1.0000 </r>
       <r>  -44.7316    1.0000 </r>
       <r>  -44.5962    1.0000 </r>
       <r>  -44.5961    1.0000 </r>
       <r>  -16.0800    1.0000 </r>
       <r>  -15.6444    1.0000 </r>
       <r>  -15.3898    1.0000 </r>
       <r>  -14.9096    1.0000 </r>
       <r>  -14.8277    1.0000 </r>
       <r>  -14.8047    1.0000 </r>
       <r>  -14.7728    1.0000 </r>
       <r>  -14.7183    1.0000 </r>
       <r>   -2.5404    1.0000 </r>
       <r>   -2.3339    1.0000 </r>
       <r>   -2.2265    1.0000 </r>
       <r>   -2.0710    1.0000 </r>
       <r>   -2.0268    1.0000 </r>
       <r>   -1.9930    1.0000 </r>
       <r>   -1.8819    1.0000 </r>
       <r>   -1.6854    1.0000 </r>
       <r>   -1.2522    1.0000 </r>
       <r>   -1.0658    1.0000 </r>
       <r>   -1.0235    1.0000 </r>
       <r>   -0.7511    1.0000 </r>
       <r>   -0.5068    1.0000 </r>
       <r>   -0.0824    1.0000 </r>
       <r>   -0.0233    1.0000 </r>
       <r>    0.3399    1.0000 </r>
       <r>    0.5093    1.0000 </r>
       <r>    0.5727    1.0000 </r>
       <r>    0.8821    1.0000 </r>
       <r>    1.0043    1.0000 </r>
       <r>    1.5060    1.0000 </r>
       <r>    1.6199    1.0000 </r>
       <r>    1.7415    1.0000 </r>
       <r>    2.1377    1.0000 </r>
       <r>    2.2288    1.0000 </r>
       <r>    2.3462    1.0000 </r>
       <r>    2.5749    1.0000 </r>
       <r>    2.8942    1.0000 </r>
       <r>    2.9942    1.0000 </r>
       <r>    3.1848    1.0000 </r>
       <r>    5.4236    0.0000 </r>
       <r>    5.7233    0.0000 </r>
       <r>    5.9539    0.0000 </r>
       <r>    6.0063    0.0000 </r>
       <r>    6.3253    0.0000 </r>
       <r>    6.4360    0.0000 </r>
       <r>    6.5012    0.0000 </r>
       <r>    6.6401    0.0000 </r>
       <r>    6.7344    0.0000 </r>
       <r>    7.0582    0.0000 </r>
      </set>
      <set comment="kpoint 11">
       <r>  -48.7586    1.0000 </r>
       <r>  -48.7584    1.0000 </r>
       <r>  -48.6336    1.0000 </r>
       <r>  -48.6334    1.0000 </r>
       <r>  -48.5860    1.0000 </r>
       <r>  -48.5859    1.0000 </r>
       <r>  -44.8858    1.0000 </r>
       <r>  -44.8856    1.0000 </r>
       <r>  -44.7274    1.0000 </r>
       <r>  -44.7272    1.0000 </r>
       <r>  -44.5914    1.0000 </r>
       <r>  -44.5913    1.0000 </r>
       <r>  -15.6961    1.0000 </r>
       <r>  -15.3964    1.0000 </r>
       <r>  -15.1742    1.0000 </r>
       <r>  -14.9212    1.0000 </r>
       <r>  -14.8799    1.0000 </r>
       <r>  -14.8530    1.0000 </r>
       <r>  -14.8295    1.0000 </r>
       <r>  -14.7688    1.0000 </r>
       <r>   -2.6950    1.0000 </r>
       <r>   -2.3795    1.0000 </r>
       <r>   -2.2436    1.0000 </r>
       <r>   -2.1796    1.0000 </r>
       <r>   -1.8955    1.0000 </r>
       <r>   -1.8529    1.0000 </r>
       <r>   -1.8035    1.0000 </r>
       <r>   -1.5736    1.0000 </r>
       <r>   -1.3282    1.0000 </r>
       <r>   -1.3066    1.0000 </r>
       <r>   -0.7492    1.0000 </r>
       <r>   -0.6276    1.0000 </r>
       <r>   -0.5237    1.0000 </r>
       <r>   -0.1891    1.0000 </r>
       <r>    0.1627    1.0000 </r>
       <r>    0.2136    1.0000 </r>
       <r>    0.4216    1.0000 </r>
       <r>    0.6299    1.0000 </r>
       <r>    0.7199    1.0000 </r>
       <r>    0.8570    1.0000 </r>
       <r>    1.3589    1.0000 </r>
       <r>    1.4748    1.0000 </r>
       <r>    1.5887    1.0000 </r>
       <r>    1.8102    1.0000 </r>
       <r>    1.9993    1.0000 </r>
       <r>    2.2585    1.0000 </r>
       <r>    2.3774    1.0000 </r>
       <r>    2.7715    1.0000 </r>
       <r>    2.9831    1.0000 </r>
       <r>    3.0692    1.0000 </r>
       <r>    5.5470    0.0000 </r>
       <r>    5.6318    0.0000 </r>
       <r>    5.8595    0.0000 </r>
       <r>    6.0332    0.0000 </r>
       <r>    6.2708    0.0000 </r>
       <r>    6.3881    0.0000 </r>
       <r>    6.4113    0.0000 </r>
       <r>    6.5921    0.0000 </r>
       <r>    6.6656    0.0000 </r>
       <r>    7.0177    0.0000 </r>
      </set>
      <set comment="kpoint 12">
       <r>  -48.7754    1.0000 </r>
       <r>  -48.7752    1.0000 </r>
       <r>  -48.6316    1.0000 </r>
       <r>  -48.6314    1.0000 </r>
       <r>  -48.5839    1.0000 </r>
       <r>  -48.5838    1.0000 </r>
       <r>  -44.9069    1.0000 </r>
       <r>  -44.9066    1.0000 </r>
       <r>  -44.7248    1.0000 </r>
       <r>  -44.7247    1.0000 </r>
       <r>  -44.5885    1.0000 </r>
       <r>  -44.5884    1.0000 </r>
       <r>  -15.3389    1.0000 </r>
       <r>  -15.1930    1.0000 </r>
       <r>  -15.0712    1.0000 </r>
       <r>  -15.0654    1.0000 </r>
       <r>  -14.9451    1.0000 </r>
       <r>  -14.8679    1.0000 </r>
       <r>  -14.8551    1.0000 </r>
       <r>  -14.7959    1.0000 </r>
       <r>   -2.9769    1.0000 </r>
       <r>   -2.5959    1.0000 </r>
       <r>   -2.3950    1.0000 </r>
       <r>   -2.2198    1.0000 </r>
       <r>   -1.8026    1.0000 </r>
       <r>   -1.7201    1.0000 </r>
       <r>   -1.5480    1.0000 </r>
       <r>   -1.4682    1.0000 </r>
       <r>   -1.3089    1.0000 </r>
       <r>   -1.1891    1.0000 </r>
       <r>   -0.8567    1.0000 </r>
       <r>   -0.6443    1.0000 </r>
       <r>   -0.1422    1.0000 </r>
       <r>   -0.1326    1.0000 </r>
       <r>    0.0317    1.0000 </r>
       <r>    0.2378    1.0000 </r>
       <r>    0.4477    1.0000 </r>
       <r>    0.6669    1.0000 </r>
       <r>    0.8131    1.0000 </r>
       <r>    0.9269    1.0000 </r>
       <r>    1.2262    1.0000 </r>
       <r>    1.3392    1.0000 </r>
       <r>    1.4323    1.0000 </r>
       <r>    1.6017    1.0000 </r>
       <r>    1.6328    1.0000 </r>
       <r>    1.7863    1.0000 </r>
       <r>    2.4014    1.0000 </r>
       <r>    2.8119    1.0000 </r>
       <r>    2.9237    1.0000 </r>
       <r>    3.0311    1.0000 </r>
       <r>    5.5852    0.0000 </r>
       <r>    5.6451    0.0000 </r>
       <r>    5.7742    0.0000 </r>
       <r>    6.0942    0.0000 </r>
       <r>    6.2224    0.0000 </r>
       <r>    6.2677    0.0000 </r>
       <r>    6.4044    0.0000 </r>
       <r>    6.5529    0.0000 </r>
       <r>    6.5828    0.0000 </r>
       <r>    7.0057    0.0000 </r>
      </set>
      <set comment="kpoint 13">
       <r>  -48.7754    1.0000 </r>
       <r>  -48.7752    1.0000 </r>
       <r>  -48.6316    1.0000 </r>
       <r>  -48.6314    1.0000 </r>
       <r>  -48.5839    1.0000 </r>
       <r>  -48.5838    1.0000 </r>
       <r>  -44.9069    1.0000 </r>
       <r>  -44.9066    1.0000 </r>
       <r>  -44.7248    1.0000 </r>
       <r>  -44.7247    1.0000 </r>
       <r>  -44.5885    1.0000 </r>
       <r>  -44.5884    1.0000 </r>
       <r>  -15.3389    1.0000 </r>
       <r>  -15.1930    1.0000 </r>
       <r>  -15.0712    1.0000 </r>
       <r>  -15.0654    1.0000 </r>
       <r>  -14.9451    1.0000 </r>
       <r>  -14.8680    1.0000 </r>
       <r>  -14.8551    1.0000 </r>
       <r>  -14.7959    1.0000 </r>
       <r>   -2.9769    1.0000 </r>
       <r>   -2.5959    1.0000 </r>
       <r>   -2.3950    1.0000 </r>
       <r>   -2.2198    1.0000 </r>
       <r>   -1.8026    1.0000 </r>
       <r>   -1.7201    1.0000 </r>
       <r>   -1.5480    1.0000 </r>
       <r>   -1.4682    1.0000 </r>
       <r>   -1.3089    1.0000 </r>
       <r>   -1.1891    1.0000 </r>
       <r>   -0.8567    1.0000 </r>
       <r>   -0.6443    1.0000 </r>
       <r>   -0.1422    1.0000 </r>
       <r>   -0.1326    1.0000 </r>
       <r>    0.0317    1.0000 </r>
       <r>    0.2378    1.0000 </r>
       <r>    0.4477    1.0000 </r>
       <r>    0.6669    1.0000 </r>
       <r>    0.8132    1.0000 </r>
       <r>    0.9269    1.0000 </r>
       <r>    1.2262    1.0000 </r>
       <r>    1.3392    1.0000 </r>
       <r>    1.4323    1.0000 </r>
       <r>    1.6017    1.0000 </r>
       <r>    1.6328    1.0000 </r>
       <r>    1.7863    1.0000 </r>
       <r>    2.4014    1.0000 </r>
       <r>    2.8119    1.0000 </r>
       <r>    2.9237    1.0000 </r>
       <r>    3.0311    1.0000 </r>
       <r>    5.5852    0.0000 </r>
       <r>    5.6451    0.0000 </r>
       <r>    5.7742    0.0000 </r>
       <r>    6.0942    0.0000 </r>
       <r>    6.2224    0.0000 </r>
       <r>    6.2677    0.0000 </r>
       <r>    6.4044    0.0000 </r>
       <r>    6.5529    0.0000 </r>
       <r>    6.5828    0.0000 </r>
       <r>    7.0057    0.0000 </r>
      </set>
      <set comment="kpoint 14">
       <r>  -48.7586    1.0000 </r>
       <r>  -48.7584    1.0000 </r>
       <r>  -48.6336    1.0000 </r>
       <r>  -48.6334    1.0000 </r>
       <r>  -48.5860    1.0000 </r>
       <r>  -48.5859    1.0000 </r>
       <r>  -44.8858    1.0000 </r>
       <r>  -44.8856    1.0000 </r>
       <r>  -44.7274    1.0000 </r>
       <r>  -44.7272    1.0000 </r>
       <r>  -44.5914    1.0000 </r>
       <r>  -44.5913    1.0000 </r>
       <r>  -15.6961    1.0000 </r>
       <r>  -15.3964    1.0000 </r>
       <r>  -15.1742    1.0000 </r>
       <r>  -14.9212    1.0000 </r>
       <r>  -14.8799    1.0000 </r>
       <r>  -14.8530    1.0000 </r>
       <r>  -14.8295    1.0000 </r>
       <r>  -14.7688    1.0000 </r>
       <r>   -2.6950    1.0000 </r>
       <r>   -2.3795    1.0000 </r>
       <r>   -2.2436    1.0000 </r>
       <r>   -2.1796    1.0000 </r>
       <r>   -1.8955    1.0000 </r>
       <r>   -1.8529    1.0000 </r>
       <r>   -1.8035    1.0000 </r>
       <r>   -1.5736    1.0000 </r>
       <r>   -1.3283    1.0000 </r>
       <r>   -1.3066    1.0000 </r>
       <r>   -0.7492    1.0000 </r>
       <r>   -0.6276    1.0000 </r>
       <r>   -0.5237    1.0000 </r>
       <r>   -0.1891    1.0000 </r>
       <r>    0.1627    1.0000 </r>
       <r>    0.2136    1.0000 </r>
       <r>    0.4217    1.0000 </r>
       <r>    0.6299    1.0000 </r>
       <r>    0.7199    1.0000 </r>
       <r>    0.8570    1.0000 </r>
       <r>    1.3589    1.0000 </r>
       <r>    1.4748    1.0000 </r>
       <r>    1.5887    1.0000 </r>
       <r>    1.8102    1.0000 </r>
       <r>    1.9993    1.0000 </r>
       <r>    2.2585    1.0000 </r>
       <r>    2.3774    1.0000 </r>
       <r>    2.7715    1.0000 </r>
       <r>    2.9831    1.0000 </r>
       <r>    3.0692    1.0000 </r>
       <r>    5.5470    0.0000 </r>
       <r>    5.6318    0.0000 </r>
       <r>    5.8595    0.0000 </r>
       <r>    6.0332    0.0000 </r>
       <r>    6.2708    0.0000 </r>
       <r>    6.3881    0.0000 </r>
       <r>    6.4113    0.0000 </r>
       <r>    6.5921    0.0000 </r>
       <r>    6.6659    0.0000 </r>
       <r>    7.0181    0.0000 </r>
      </set>
      <set comment="kpoint 15">
       <r>  -48.7302    1.0000 </r>
       <r>  -48.7301    1.0000 </r>
       <r>  -48.6370    1.0000 </r>
       <r>  -48.6368    1.0000 </r>
       <r>  -48.5895    1.0000 </r>
       <r>  -48.5894    1.0000 </r>
       <r>  -44.8502    1.0000 </r>
       <r>  -44.8500    1.0000 </r>
       <r>  -44.7318    1.0000 </r>
       <r>  -44.7316    1.0000 </r>
       <r>  -44.5962    1.0000 </r>
       <r>  -44.5961    1.0000 </r>
       <r>  -16.0800    1.0000 </r>
       <r>  -15.6444    1.0000 </r>
       <r>  -15.3898    1.0000 </r>
       <r>  -14.9096    1.0000 </r>
       <r>  -14.8277    1.0000 </r>
       <r>  -14.8047    1.0000 </r>
       <r>  -14.7728    1.0000 </r>
       <r>  -14.7183    1.0000 </r>
       <r>   -2.5404    1.0000 </r>
       <r>   -2.3339    1.0000 </r>
       <r>   -2.2265    1.0000 </r>
       <r>   -2.0710    1.0000 </r>
       <r>   -2.0268    1.0000 </r>
       <r>   -1.9930    1.0000 </r>
       <r>   -1.8819    1.0000 </r>
       <r>   -1.6854    1.0000 </r>
       <r>   -1.2522    1.0000 </r>
       <r>   -1.0658    1.0000 </r>
       <r>   -1.0235    1.0000 </r>
       <r>   -0.7511    1.0000 </r>
       <r>   -0.5068    1.0000 </r>
       <r>   -0.0824    1.0000 </r>
       <r>   -0.0233    1.0000 </r>
       <r>    0.3399    1.0000 </r>
       <r>    0.5093    1.0000 </r>
       <r>    0.5727    1.0000 </r>
       <r>    0.8821    1.0000 </r>
       <r>    1.0043    1.0000 </r>
       <r>    1.5060    1.0000 </r>
       <r>    1.6199    1.0000 </r>
       <r>    1.7415    1.0000 </r>
       <r>    2.1377    1.0000 </r>
       <r>    2.2287    1.0000 </r>
       <r>    2.3462    1.0000 </r>
       <r>    2.5749    1.0000 </r>
       <r>    2.8942    1.0000 </r>
       <r>    2.9942    1.0000 </r>
       <r>    3.1848    1.0000 </r>
       <r>    5.4236    0.0000 </r>
       <r>    5.7233    0.0000 </r>
       <r>    5.9539    0.0000 </r>
       <r>    6.0063    0.0000 </r>
       <r>    6.3253    0.0000 </r>
       <r>    6.4360    0.0000 </r>
       <r>    6.5012    0.0000 </r>
       <r>    6.6401    0.0000 </r>
       <r>    6.7345    0.0000 </r>
       <r>    7.0586    0.0000 </r>
      </set>
      <set comment="kpoint 16">
       <r>  -48.6992    1.0000 </r>
       <r>  -48.6991    1.0000 </r>
       <r>  -48.6407    1.0000 </r>
       <r>  -48.6406    1.0000 </r>
       <r>  -48.5932    1.0000 </r>
       <r>  -48.5931    1.0000 </r>
       <r>  -44.8113    1.0000 </r>
       <r>  -44.8111    1.0000 </r>
       <r>  -44.7367    1.0000 </r>
       <r>  -44.7363    1.0000 </r>
       <r>  -44.6014    1.0000 </r>
       <r>  -44.6013    1.0000 </r>
       <r>  -16.4159    1.0000 </r>
       <r>  -15.8827    1.0000 </r>
       <r>  -15.6114    1.0000 </r>
       <r>  -14.9805    1.0000 </r>
       <r>  -14.7978    1.0000 </r>
       <r>  -14.7655    1.0000 </r>
       <r>  -14.6917    1.0000 </r>
       <r>  -14.6563    1.0000 </r>
       <r>   -2.9716    1.0000 </r>
       <r>   -2.5100    1.0000 </r>
       <r>   -2.2963    1.0000 </r>
       <r>   -2.1436    1.0000 </r>
       <r>   -2.0397    1.0000 </r>
       <r>   -1.9526    1.0000 </r>
       <r>   -1.7075    1.0000 </r>
       <r>   -1.6715    1.0000 </r>
       <r>   -1.2893    1.0000 </r>
       <r>   -1.1322    1.0000 </r>
       <r>   -0.7897    1.0000 </r>
       <r>   -0.4818    1.0000 </r>
       <r>   -0.3846    1.0000 </r>
       <r>   -0.1363    1.0000 </r>
       <r>    0.1271    1.0000 </r>
       <r>    0.4861    1.0000 </r>
       <r>    0.6875    1.0000 </r>
       <r>    0.8243    1.0000 </r>
       <r>    0.9121    1.0000 </r>
       <r>    1.0674    1.0000 </r>
       <r>    1.5003    1.0000 </r>
       <r>    1.7955    1.0000 </r>
       <r>    2.0582    1.0000 </r>
       <r>    2.2423    1.0000 </r>
       <r>    2.3130    1.0000 </r>
       <r>    2.4918    1.0000 </r>
       <r>    2.6071    1.0000 </r>
       <r>    2.9783    1.0000 </r>
       <r>    3.0732    1.0000 </r>
       <r>    3.2705    1.0000 </r>
       <r>    5.2846    0.0000 </r>
       <r>    5.8089    0.0000 </r>
       <r>    5.8312    0.0000 </r>
       <r>    6.1455    0.0000 </r>
       <r>    6.3805    0.0000 </r>
       <r>    6.5006    0.0000 </r>
       <r>    6.5869    0.0000 </r>
       <r>    6.6220    0.0000 </r>
       <r>    6.6987    0.0000 </r>
       <r>    7.2122    0.0000 </r>
      </set>
      <set comment="kpoint 17">
       <r>  -48.6755    1.0000 </r>
       <r>  -48.6754    1.0000 </r>
       <r>  -48.6437    1.0000 </r>
       <r>  -48.6435    1.0000 </r>
       <r>  -48.5960    1.0000 </r>
       <r>  -48.5959    1.0000 </r>
       <r>  -44.7815    1.0000 </r>
       <r>  -44.7813    1.0000 </r>
       <r>  -44.7405    1.0000 </r>
       <r>  -44.7400    1.0000 </r>
       <r>  -44.6053    1.0000 </r>
       <r>  -44.6052    1.0000 </r>
       <r>  -16.6430    1.0000 </r>
       <r>  -16.0530    1.0000 </r>
       <r>  -15.7734    1.0000 </r>
       <r>  -15.0552    1.0000 </r>
       <r>  -14.7735    1.0000 </r>
       <r>  -14.7400    1.0000 </r>
[...]
       <r>    -5.0660     0.0000    20.0000 </r>
       <r>    -4.8592     0.0000    20.0000 </r>
       <r>    -4.6524     0.0000    20.0000 </r>
       <r>    -4.4456     0.0000    20.0000 </r>
       <r>    -4.2388     0.0000    20.0000 </r>
       <r>    -4.0320     0.0000    20.0000 </r>
       <r>    -3.8252     0.0000    20.0000 </r>
       <r>    -3.6184     0.0000    20.0000 </r>
       <r>    -3.4116     0.0207    20.0043 </r>
       <r>    -3.2048     0.2686    20.1107 </r>
       <r>    -2.9980     0.5417    20.3620 </r>
       <r>    -2.7912     0.9365    20.8560 </r>
       <r>    -2.5844     1.0491    21.4832 </r>
       <r>    -2.3776     1.2932    22.5109 </r>
       <r>    -2.1708     2.0197    23.5605 </r>
       <r>    -1.9640     2.3565    24.8250 </r>
       <r>    -1.7572     3.5410    26.4076 </r>
       <r>    -1.5505     2.3354    27.8563 </r>
       <r>    -1.3437     1.0791    28.2621 </r>
       <r>    -1.1369     2.4328    29.2921 </r>
       <r>    -0.9301     1.5102    30.1045 </r>
       <r>    -0.7233     1.9674    30.8257 </r>
       <r>    -0.5165     1.3941    31.6389 </r>
       <r>    -0.3097     1.5217    32.3666 </r>
       <r>    -0.1029     1.8736    33.1212 </r>
       <r>     0.1039     2.8714    34.2107 </r>
       <r>     0.3107     1.5011    35.1286 </r>
       <r>     0.5175     1.4345    36.1213 </r>
       <r>     0.7243     2.2446    37.3181 </r>
       <r>     0.9311     2.1937    38.5024 </r>
       <r>     1.1379     1.7852    39.3822 </r>
       <r>     1.3447     0.8694    40.0142 </r>
       <r>     1.5515     3.0054    41.2741 </r>
       <r>     1.7583     2.0978    42.4403 </r>
       <r>     1.9651     1.7772    43.4097 </r>
       <r>     2.1719     1.4806    44.3192 </r>
       <r>     2.3787     1.8186    45.3923 </r>
       <r>     2.5855     2.2811    46.4652 </r>
       <r>     2.7923     1.9613    47.6036 </r>
       <r>     2.9991     1.4109    48.3859 </r>
       <r>     3.2059     1.8819    49.4411 </r>
       <r>     3.4127     0.3832    49.9104 </r>
       <r>     3.6195     0.0314    50.0000 </r>
       <r>     3.8263     0.0000    50.0000 </r>
       <r>     4.0331     0.0000    50.0000 </r>
       <r>     4.2399     0.0000    50.0000 </r>
       <r>     4.4467     0.0000    50.0000 </r>
       <r>     4.6535     0.0000    50.0000 </r>
       <r>     4.8603     0.0000    50.0000 </r>
       <r>     5.0671     0.0000    50.0000 </r>
       <r>     5.2739     0.1850    50.0383 </r>
       <r>     5.4807     0.9593    50.5263 </r>
       <r>     5.6875     3.1517    52.0122 </r>
       <r>     5.8942     2.2680    53.0177 </r>
       <r>     6.1010     0.8476    53.8831 </r>
       <r>     6.3078     2.5820    54.7482 </r>
       <r>     6.5146     3.4570    56.4162 </r>
       <r>     6.7214     1.9432    57.6096 </r>
       <r>     6.9282     2.8698    58.9798 </r>
       <r>     7.1350     0.6845    59.5799 </r>
       <r>     7.3418     0.0006    59.7501 </r>
       <r>     7.5486     0.2555    59.9457 </r>
       <r>     7.7554     0.0000    60.0000 </r>
       <r>     7.9622     0.0000    60.0000 </r>
       <r>     8.1690     0.0000    60.0000 </r>
       <r>     8.3758     0.0000    60.0000 </r>
       <r>     8.5826     0.0000    60.0000 </r>
       <r>     8.7894     0.0000    60.0000 </r>
       <r>     8.9962     0.0000    60.0000 </r>
       <r>     9.2030     0.0000    60.0000 </r>
       <r>     9.4098     0.0000    60.0000 </r>
       <r>     9.6166     0.0000    60.0000 </r>
       <r>     9.8234     0.0000    60.0000 </r>
       <r>    10.0302     0.0000    60.0000 </r>
       <r>    10.2370     0.0000    60.0000 </r>
       <r>    10.4438     0.0000    60.0000 </r>
      </set>
      <set comment="spin 2">
       <r>   -51.5954     0.0000     0.0000 </r>
       <r>   -51.3886     0.0000     0.0000 </r>
       <r>   -51.1818     0.0000     0.0000 </r>
       <r>   -50.9750     0.0000     0.0000 </r>
       <r>   -50.7682     0.0000     0.0000 </r>
       <r>   -50.5614     0.0000     0.0000 </r>
       <r>   -50.3546     0.0000     0.0000 </r>
       <r>   -50.1478     0.0000     0.0000 </r>
       <r>   -49.9410     0.0000     0.0000 </r>
       <r>   -49.7342     0.0000     0.0000 </r>
       <r>   -49.5274     0.0000     0.0000 </r>
       <r>   -49.3206     0.0000     0.0000 </r>
       <r>   -49.1138     0.0000     0.0000 </r>
       <r>   -48.9070     0.0000     0.0000 </r>
       <r>   -48.7002     6.0522     1.2516 </r>
       <r>   -48.4934     0.0000     6.0000 </r>
       <r>   -48.2866     0.0000     6.0000 </r>
       <r>   -48.0798     0.0000     6.0000 </r>
       <r>   -47.8730     0.0000     6.0000 </r>
       <r>   -47.6662     0.0000     6.0000 </r>
       <r>   -47.4594     0.0000     6.0000 </r>
       <r>   -47.2526     0.0000     6.0000 </r>
       <r>   -47.0458     0.0000     6.0000 </r>
       <r>   -46.8390     0.0000     6.0000 </r>
       <r>   -46.6322     0.0000     6.0000 </r>
       <r>   -46.4254     0.0000     6.0000 </r>
       <r>   -46.2186     0.0000     6.0000 </r>
       <r>   -46.0119     0.0000     6.0000 </r>
       <r>   -45.8051     0.0000     6.0000 </r>
       <r>   -45.5983     0.0000     6.0000 </r>
       <r>   -45.3915     0.0000     6.0000 </r>
       <r>   -45.1847     0.0000     6.0000 </r>
       <r>   -44.9779     0.0000     6.0000 </r>
       <r>   -44.7711     5.5446     7.8739 </r>
       <r>   -44.5643     9.6707    11.9999 </r>
       <r>   -44.3575     0.0000    12.0000 </r>
       <r>   -44.1507     0.0000    12.0000 </r>
       <r>   -43.9439     0.0000    12.0000 </r>
       <r>   -43.7371     0.0000    12.0000 </r>
       <r>   -43.5303     0.0000    12.0000 </r>
       <r>   -43.3235     0.0000    12.0000 </r>
       <r>   -43.1167     0.0000    12.0000 </r>
       <r>   -42.9099     0.0000    12.0000 </r>
       <r>   -42.7031     0.0000    12.0000 </r>
       <r>   -42.4963     0.0000    12.0000 </r>
       <r>   -42.2895     0.0000    12.0000 </r>
       <r>   -42.0827     0.0000    12.0000 </r>
       <r>   -41.8759     0.0000    12.0000 </r>
       <r>   -41.6691     0.0000    12.0000 </r>
       <r>   -41.4623     0.0000    12.0000 </r>
       <r>   -41.2555     0.0000    12.0000 </r>
       <r>   -41.0487     0.0000    12.0000 </r>
       <r>   -40.8419     0.0000    12.0000 </r>
       <r>   -40.6351     0.0000    12.0000 </r>
       <r>   -40.4283     0.0000    12.0000 </r>
       <r>   -40.2215     0.0000    12.0000 </r>
       <r>   -40.0147     0.0000    12.0000 </r>
       <r>   -39.8079     0.0000    12.0000 </r>
       <r>   -39.6011     0.0000    12.0000 </r>
       <r>   -39.3943     0.0000    12.0000 </r>
       <r>   -39.1875     0.0000    12.0000 </r>
       <r>   -38.9807     0.0000    12.0000 </r>
       <r>   -38.7739     0.0000    12.0000 </r>
       <r>   -38.5672     0.0000    12.0000 </r>
       <r>   -38.3604     0.0000    12.0000 </r>
       <r>   -38.1536     0.0000    12.0000 </r>
       <r>   -37.9468     0.0000    12.0000 </r>
       <r>   -37.7400     0.0000    12.0000 </r>
       <r>   -37.5332     0.0000    12.0000 </r>
       <r>   -37.3264     0.0000    12.0000 </r>
       <r>   -37.1196     0.0000    12.0000 </r>
       <r>   -36.9128     0.0000    12.0000 </r>
       <r>   -36.7060     0.0000    12.0000 </r>
       <r>   -36.4992     0.0000    12.0000 </r>
       <r>   -36.2924     0.0000    12.0000 </r>
       <r>   -36.0856     0.0000    12.0000 </r>
       <r>   -35.8788     0.0000    12.0000 </r>
       <r>   -35.6720     0.0000    12.0000 </r>
       <r>   -35.4652     0.0000    12.0000 </r>
       <r>   -35.2584     0.0000    12.0000 </r>
       <r>   -35.0516     0.0000    12.0000 </r>
       <r>   -34.8448     0.0000    12.0000 </r>
       <r>   -34.6380     0.0000    12.0000 </r>
       <r>   -34.4312     0.0000    12.0000 </r>
       <r>   -34.2244     0.0000    12.0000 </r>
       <r>   -34.0176     0.0000    12.0000 </r>
       <r>   -33.8108     0.0000    12.0000 </r>
       <r>   -33.6040     0.0000    12.0000 </r>
       <r>   -33.3972     0.0000    12.0000 </r>
       <r>   -33.1904     0.0000    12.0000 </r>
       <r>   -32.9836     0.0000    12.0000 </r>
       <r>   -32.7768     0.0000    12.0000 </r>
       <r>   -32.5700     0.0000    12.0000 </r>
       <r>   -32.3632     0.0000    12.0000 </r>
       <r>   -32.1564     0.0000    12.0000 </r>
       <r>   -31.9496     0.0000    12.0000 </r>
       <r>   -31.7428     0.0000    12.0000 </r>
       <r>   -31.5360     0.0000    12.0000 </r>
       <r>   -31.3293     0.0000    12.0000 </r>
       <r>   -31.1225     0.0000    12.0000 </r>
       <r>   -30.9157     0.0000    12.0000 </r>
       <r>   -30.7089     0.0000    12.0000 </r>
       <r>   -30.5021     0.0000    12.0000 </r>
       <r>   -30.2953     0.0000    12.0000 </r>
       <r>   -30.0885     0.0000    12.0000 </r>
       <r>   -29.8817     0.0000    12.0000 </r>
       <r>   -29.6749     0.0000    12.0000 </r>
       <r>   -29.4681     0.0000    12.0000 </r>
       <r>   -29.2613     0.0000    12.0000 </r>
       <r>   -29.0545     0.0000    12.0000 </r>
       <r>   -28.8477     0.0000    12.0000 </r>
       <r>   -28.6409     0.0000    12.0000 </r>
       <r>   -28.4341     0.0000    12.0000 </r>
       <r>   -28.2273     0.0000    12.0000 </r>
       <r>   -28.0205     0.0000    12.0000 </r>
       <r>   -27.8137     0.0000    12.0000 </r>
       <r>   -27.6069     0.0000    12.0000 </r>
       <r>   -27.4001     0.0000    12.0000 </r>
       <r>   -27.1933     0.0000    12.0000 </r>
       <r>   -26.9865     0.0000    12.0000 </r>
       <r>   -26.7797     0.0000    12.0000 </r>
       <r>   -26.5729     0.0000    12.0000 </r>
       <r>   -26.3661     0.0000    12.0000 </r>
       <r>   -26.1593     0.0000    12.0000 </r>
       <r>   -25.9525     0.0000    12.0000 </r>
       <r>   -25.7457     0.0000    12.0000 </r>
       <r>   -25.5389     0.0000    12.0000 </r>
       <r>   -25.3321     0.0000    12.0000 </r>
       <r>   -25.1253     0.0000    12.0000 </r>
       <r>   -24.9185     0.0000    12.0000 </r>
       <r>   -24.7117     0.0000    12.0000 </r>
       <r>   -24.5049     0.0000    12.0000 </r>
       <r>   -24.2981     0.0000    12.0000 </r>
       <r>   -24.0913     0.0000    12.0000 </r>
       <r>   -23.8846     0.0000    12.0000 </r>
       <r>   -23.6778     0.0000    12.0000 </r>
       <r>   -23.4710     0.0000    12.0000 </r>
       <r>   -23.2642     0.0000    12.0000 </r>
       <r>   -23.0574     0.0000    12.0000 </r>
       <r>   -22.8506     0.0000    12.0000 </r>
       <r>   -22.6438     0.0000    12.0000 </r>
       <r>   -22.4370     0.0000    12.0000 </r>
       <r>   -22.2302     0.0000    12.0000 </r>
       <r>   -22.0234     0.0000    12.0000 </r>
       <r>   -21.8166     0.0000    12.0000 </r>
       <r>   -21.6098     0.0000    12.0000 </r>
       <r>   -21.4030     0.0000    12.0000 </r>
       <r>   -21.1962     0.0000    12.0000 </r>
       <r>   -20.9894     0.0000    12.0000 </r>
       <r>   -20.7826     0.0000    12.0000 </r>
       <r>   -20.5758     0.0000    12.0000 </r>
       <r>   -20.3690     0.0000    12.0000 </r>
       <r>   -20.1622     0.0000    12.0000 </r>
       <r>   -19.9554     0.0000    12.0000 </r>
       <r>   -19.7486     0.0000    12.0000 </r>
       <r>   -19.5418     0.0000    12.0000 </r>
       <r>   -19.3350     0.0000    12.0000 </r>
       <r>   -19.1282     0.0000    12.0000 </r>
       <r>   -18.9214     0.0000    12.0000 </r>
       <r>   -18.7146     0.0000    12.0000 </r>
       <r>   -18.5078     0.0000    12.0000 </r>
       <r>   -18.3010     0.0000    12.0000 </r>
       <r>   -18.0942     0.0000    12.0000 </r>
       <r>   -17.8874     0.0000    12.0000 </r>
       <r>   -17.6806     0.0000    12.0000 </r>
       <r>   -17.4738     0.0000    12.0000 </r>
       <r>   -17.2670     0.0000    12.0000 </r>
       <r>   -17.0602     0.0000    12.0000 </r>
       <r>   -16.8534     0.0000    12.0000 </r>
       <r>   -16.6466     0.1822    12.0409 </r>
       <r>   -16.4399     0.3965    12.2086 </r>
       <r>   -16.2331     0.8003    12.5454 </r>
       <r>   -16.0263     0.7241    12.8705 </r>
       <r>   -15.8195     0.4401    13.1170 </r>
       <r>   -15.6127     0.5736    13.4271 </r>
       <r>   -15.4059     1.1870    13.9435 </r>
       <r>   -15.1991     1.9612    14.7724 </r>
       <r>   -14.9923     2.6692    15.7046 </r>
       <r>   -14.7855     7.2452    18.2515 </r>
       <r>   -14.5787     1.2005    19.9690 </r>
       <r>   -14.3719     0.0000    20.0000 </r>
       <r>   -14.1651     0.0000    20.0000 </r>
       <r>   -13.9583     0.0000    20.0000 </r>
       <r>   -13.7515     0.0000    20.0000 </r>
       <r>   -13.5447     0.0000    20.0000 </r>
       <r>   -13.3379     0.0000    20.0000 </r>
       <r>   -13.1311     0.0000    20.0000 </r>
       <r>   -12.9243     0.0000    20.0000 </r>
       <r>   -12.7175     0.0000    20.0000 </r>
       <r>   -12.5107     0.0000    20.0000 </r>
       <r>   -12.3039     0.0000    20.0000 </r>
       <r>   -12.0971     0.0000    20.0000 </r>
       <r>   -11.8903     0.0000    20.0000 </r>
       <r>   -11.6835     0.0000    20.0000 </r>
       <r>   -11.4767     0.0000    20.0000 </r>
       <r>   -11.2699     0.0000    20.0000 </r>
       <r>   -11.0631     0.0000    20.0000 </r>
       <r>   -10.8563     0.0000    20.0000 </r>
       <r>   -10.6495     0.0000    20.0000 </r>
       <r>   -10.4427     0.0000    20.0000 </r>
       <r>   -10.2359     0.0000    20.0000 </r>
       <r>   -10.0291     0.0000    20.0000 </r>
       <r>    -9.8223     0.0000    20.0000 </r>
       <r>    -9.6155     0.0000    20.0000 </r>
       <r>    -9.4087     0.0000    20.0000 </r>
       <r>    -9.2019     0.0000    20.0000 </r>
       <r>    -8.9952     0.0000    20.0000 </r>
       <r>    -8.7884     0.0000    20.0000 </r>
       <r>    -8.5816     0.0000    20.0000 </r>
       <r>    -8.3748     0.0000    20.0000 </r>
       <r>    -8.1680     0.0000    20.0000 </r>
       <r>    -7.9612     0.0000    20.0000 </r>
       <r>    -7.7544     0.0000    20.0000 </r>
       <r>    -7.5476     0.0000    20.0000 </r>
       <r>    -7.3408     0.0000    20.0000 </r>
       <r>    -7.1340     0.0000    20.0000 </r>
       <r>    -6.9272     0.0000    20.0000 </r>
       <r>    -6.7204     0.0000    20.0000 </r>
       <r>    -6.5136     0.0000    20.0000 </r>
       <r>    -6.3068     0.0000    20.0000 </r>
       <r>    -6.1000     0.0000    20.0000 </r>
       <r>    -5.8932     0.0000    20.0000 </r>
       <r>    -5.6864     0.0000    20.0000 </r>
       <r>    -5.4796     0.0000    20.0000 </r>
       <r>    -5.2728     0.0000    20.0000 </r>
       <r>    -5.0660     0.0000    20.0000 </r>
       <r>    -4.8592     0.0000    20.0000 </r>
       <r>    -4.6524     0.0000    20.0000 </r>
       <r>    -4.4456     0.0000    20.0000 </r>
       <r>    -4.2388     0.0000    20.0000 </r>
       <r>    -4.0320     0.0000    20.0000 </r>
       <r>    -3.8252     0.0000    20.0000 </r>
       <r>    -3.6184     0.0000    20.0000 </r>
       <r>    -3.4116     0.0207    20.0043 </r>
       <r>    -3.2048     0.2686    20.1107 </r>
       <r>    -2.9980     0.5417    20.3620 </r>
       <r>    -2.7912     0.9365    20.8560 </r>
       <r>    -2.5844     1.0491    21.4832 </r>
       <r>    -2.3776     1.2932    22.5109 </r>
       <r>    -2.1708     2.0197    23.5605 </r>
       <r>    -1.9640     2.3565    24.8250 </r>
       <r>    -1.7572     3.5410    26.4076 </r>
       <r>    -1.5505     2.3353    27.8563 </r>
       <r>    -1.3437     1.0791    28.2621 </r>
       <r>    -1.1369     2.4328    29.2921 </r>
       <r>    -0.9301     1.5102    30.1045 </r>
       <r>    -0.7233     1.9674    30.8257 </r>
       <r>    -0.5165     1.3941    31.6389 </r>
       <r>    -0.3097     1.5217    32.3666 </r>
       <r>    -0.1029     1.8736    33.1212 </r>
       <r>     0.1039     2.8714    34.2107 </r>
       <r>     0.3107     1.5011    35.1286 </r>
       <r>     0.5175     1.4345    36.1213 </r>
       <r>     0.7243     2.2446    37.3181 </r>
       <r>     0.9311     2.1937    38.5024 </r>
       <r>     1.1379     1.7852    39.3822 </r>
       <r>     1.3447     0.8694    40.0142 </r>
       <r>     1.5515     3.0054    41.2741 </r>
       <r>     1.7583     2.0977    42.4403 </r>
       <r>     1.9651     1.7772    43.4097 </r>
       <r>     2.1719     1.4806    44.3192 </r>
       <r>     2.3787     1.8186    45.3923 </r>
       <r>     2.5855     2.2811    46.4652 </r>
       <r>     2.7923     1.9613    47.6036 </r>
       <r>     2.9991     1.4109    48.3859 </r>
       <r>     3.2059     1.8819    49.4411 </r>
       <r>     3.4127     0.3832    49.9104 </r>
       <r>     3.6195     0.0314    50.0000 </r>
       <r>     3.8263     0.0000    50.0000 </r>
       <r>     4.0331     0.0000    50.0000 </r>
       <r>     4.2399     0.0000    50.0000 </r>
       <r>     4.4467     0.0000    50.0000 </r>
       <r>     4.6535     0.0000    50.0000 </r>
       <r>     4.8603     0.0000    50.0000 </r>
       <r>     5.0671     0.0000    50.0000 </r>
       <r>     5.2739     0.1850    50.0383 </r>
       <r>     5.4807     0.9593    50.5263 </r>
       <r>     5.6875     3.1517    52.0122 </r>
       <r>     5.8942     2.2680    53.0177 </r>
       <r>     6.1010     0.8476    53.8831 </r>
       <r>     6.3078     2.5820    54.7482 </r>
       <r>     6.5146     3.4570    56.4162 </r>
       <r>     6.7214     1.9432    57.6096 </r>
       <r>     6.9282     2.8698    58.9798 </r>
       <r>     7.1350     0.6845    59.5799 </r>
       <r>     7.3418     0.0006    59.7501 </r>
       <r>     7.5486     0.2554    59.9457 </r>
       <r>     7.7554     0.0000    60.0000 </r>
       <r>     7.9622     0.0000    60.0000 </r>
       <r>     8.1690     0.0000    60.0000 </r>
       <r>     8.3758     0.0000    60.0000 </r>
       <r>     8.5826     0.0000    60.0000 </r>
       <r>     8.7894     0.0000    60.0000 </r>
       <r>     8.9962     0.0000    60.0000 </r>
       <r>     9.2030     0.0000    60.0000 </r>
       <r>     9.4098     0.0000    60.0000 </r>
       <r>     9.6166     0.0000    60.0000 </r>
       <r>     9.8234     0.0000    60.0000 </r>
       <r>    10.0302     0.0000    60.0000 </r>
       <r>    10.2370     0.0000    60.0000 </r>
       <r>    10.4438     0.0000    60.0000 </r>
      </set>
     </set>
    </array>
   </total>
  </dos>
 </calculation>
 <structure name="finalpos" >
  <crystal>
   <varray name="basis" >
    <v>       2.85434681      -0.00000238      -0.00000231 </v>
    <v>      -0.00000843       4.54492934      -0.00001786 </v>
    <v>       0.00000299      -0.00006145       9.19413980 </v>
   </varray>
   <i name="volume">    119.27377864 </i>
   <varray name="rec_basis" >
    <v>       0.35034285       0.00000065      -0.00000011 </v>
    <v>       0.00000018       0.22002542       0.00000147 </v>
    <v>       0.00000009       0.00000043       0.10876493 </v>
   </varray>
  </crystal>
  <varray name="positions" >
   <v>       0.25000138       0.03048329       0.86460731 </v>
   <v>       0.75000181       0.96951742       0.13539271 </v>
   <v>       0.75000058       0.53049089       0.63539220 </v>
   <v>       0.25000127       0.46951019       0.36460838 </v>
   <v>       0.24999900       0.71262490       0.53392601 </v>
   <v>       0.75000019       0.21261304       0.96607129 </v>
   <v>       0.24999749       0.78738770       0.03392861 </v>
   <v>       0.74999758       0.28737644       0.46607476 </v>
   <v>       0.25000141       0.17561156       0.22189687 </v>
   <v>       0.24999910       0.32439125       0.72189599 </v>
   <v>       0.75000086       0.67560644       0.27810335 </v>
   <v>       0.74999934       0.82438787       0.77810351 </v>
  </varray>
 </structure>
</modeling>
