unknown system                          
           1
     2.854347   -0.000002   -0.000002
    -0.000008    4.544929   -0.000018
     0.000003   -0.000061    9.194140
   Mn   O 
   4   8
Direct configuration=     1
   0.25000138  0.03048329  0.86460731
   0.75000181  0.96951742  0.13539271
   0.75000058  0.53049089  0.63539220
   0.25000127  0.46951019  0.36460838
   0.24999900  0.71262490  0.53392601
   0.75000019  0.21261304  0.96607129
   0.24999749  0.78738770  0.03392861
   0.74999758  0.28737644  0.46607476
   0.25000141  0.17561156  0.22189687
   0.24999910  0.32439125  0.72189599
   0.75000086  0.67560644  0.27810335
   0.74999934  0.82438787  0.77810351
