unknown system                          
   1.00000000000000     
     0.000004    2.028818    2.028818
     2.028818    0.000004    2.028818
     2.028818    2.028818    0.000004
   Li   F 
     1     1
Direct
  0.000000  0.000000  1.000000
  0.500000  0.500000  0.500000
 
   48   48   48
 0.72422245978E-09 0.52833426358E-09 0.56644549643E-09 0.29175182995E-09 0.31551258524E-09
 0.91217586988E-10 0.16773627685E-09 0.48443570624E-11 0.84770755574E-10 -.37942969784E-10
 0.22738641119E-10 -.17830014141E-10 -.41020036897E-11 0.25186928646E-09 0.85945679668E-10
 -.41193696681E-09 -.11743900341E-08 -.94518863196E-09 -.17036613404E-08 0.78893153846E-09
 0.13867367907E-08 0.33893620947E-08 -.25291771608E-08 -.35832212961E-08 0.55391353726E-08
 -.35831883432E-08 -.25291604597E-08 0.33893754210E-08 0.13867449822E-08 0.78891736970E-09
 -.17036650021E-08 -.94518171183E-09 -.11743915796E-08 -.41193604103E-09 0.85946060332E-10
 0.25188252968E-09 -.41025444623E-11 -.17829397675E-10 0.22719988760E-10 -.37942216209E-10
 0.84777175676E-10 0.48427569466E-11 0.16773612842E-09 0.91212031921E-10 0.31550045401E-09
 0.29175397199E-09 0.56644284739E-09 0.52832258059E-09 0.52831793146E-09 0.59909969931E-09
 0.33831380331E-09 0.35955407368E-09 0.12419884990E-09 0.19021303599E-09 0.24497601190E-10
 0.10214257849E-09 -.25355299099E-10 0.33745486211E-10 -.34383542920E-10 0.98824532184E-11
 0.78540893585E-10 -.13058388931E-09 0.13115905952E-09 0.57579683372E-09 0.13570999416E-08
 0.10727388644E-08 0.19509369440E-08 -.52675407696E-09 -.10580997981E-08 -.32743286475E-08
 0.23416640915E-08 0.39147010986E-08 -.54754886259E-08 0.34296612674E-08 0.29484494890E-08
 -.32215150996E-08 -.14017262743E-08 -.71990031657E-09 0.17964024439E-08 0.11575225322E-08
 0.13398655289E-08 0.59989738847E-09 0.24390890073E-10 -.14025480206E-09 0.26883682526E-10
 0.12740662738E-10 -.43261195964E-10 0.71972942554E-10 -.99514858580E-11 0.14771555975E-09
 0.58593630195E-10 0.26228157177E-09 0.21670552646E-09 0.48450775358E-09 0.45072566825E-09
 0.67777649190E-09 0.56634291509E-09 0.33833713726E-09 0.37668663066E-09 0.14531347967E-09
 0.20871710972E-09 0.43198612741E-10 0.12156529386E-09 -.81200216416E-11 0.49633689107E-10
 -.37075302274E-10 0.25908009301E-11 0.13576687326E-10 -.16460562890E-10 0.26591835063E-09
 -.39843563895E-10 -.43339306406E-09 -.12479116135E-08 -.90115270865E-09 -.18916566261E-08
 0.57940379733E-09 0.10220155329E-08 0.33940297801E-08 -.19828005292E-08 -.41259217166E-08
 0.55604535898E-08 -.31101293739E-08 -.31493267145E-08 0.33332449633E-08 0.17331363421E-08
 0.96216106251E-09 -.15936392906E-08 -.10750261333E-08 -.11990647610E-08 -.47307030443E-09
 0.12791619288E-09 0.17683662875E-09 -.24923600409E-10 -.41289449474E-10 0.59656103538E-10
 -.19283807855E-10 0.13256115948E-09 0.33036168250E-10 0.21749509565E-09 0.13805704015E-09
 0.38227226895E-09 0.33459900438E-09 0.56834898759E-09 0.45074871629E-09 0.29161816393E-09
 0.35952772288E-09 0.14528864200E-09 0.21591481093E-09 0.54607791165E-10 0.13623080257E-09
 0.78560491078E-11 0.65896174253E-10 -.30788679534E-10 0.20863179437E-11 -.18228597809E-10
 -.18636559329E-10 0.79619518179E-10 -.20566661096E-09 0.15362529332E-09 0.47328528391E-09
 0.13228710751E-08 0.92911579036E-09 0.20571599909E-08 -.41139306373E-09 -.79054845331E-09
 -.33625127543E-08 0.17288371220E-08 0.44378880570E-08 -.55615228615E-08 0.29436927340E-08
 0.35632935476E-08 -.32253162996E-08 -.18697400828E-08 -.10257408189E-08 0.15661303803E-08
 0.11809996727E-08 0.12725815521E-08 0.55089014954E-09 -.14491086500E-09 -.17724696403E-09
 -.95759176384E-11 0.39227865107E-10 -.28902390223E-10 0.11917380468E-09 0.13108728795E-10
 0.18650855370E-09 0.77477205748E-10 0.28855933459E-09 0.21285747919E-09 0.44069598027E-09
 0.33459945189E-09 0.48448153049E-09 0.31544547904E-09 0.12419862332E-09 0.20869258879E-09
 0.54644387856E-10 0.14153048888E-09 0.16941364000E-10 0.76829307926E-10 -.23739372355E-10
 0.64257347146E-11 -.31903551628E-10 -.31003010886E-10 0.17533958809E-10 -.85739475941E-10
 0.22842195446E-09 -.20764624656E-09 -.46732827477E-09 -.13394482536E-08 -.85081926801E-09
 -.20873290749E-08 0.38956152068E-09 0.67406732084E-09 0.33971233366E-08 -.14395193910E-08
 -.47412069779E-08 0.56452599626E-08 -.26716090969E-08 -.38649800080E-08 0.32482817340E-08
 0.21256616065E-08 0.11590828137E-08 -.14943201164E-08 -.12286543970E-08 -.12638243687E-08
 -.55526152508E-09 0.17599642657E-09 0.13147250242E-09 -.15003466224E-10 -.39221996835E-10
 0.98632494754E-10 -.52191263537E-11 0.16215836850E-09 0.36488476748E-10 0.22351508432E-09
 0.11281568427E-09 0.32320334682E-09 0.21283669003E-09 0.38223757135E-09 0.21670784770E-09
 0.91196501271E-10 0.19023552618E-09 0.43209334276E-10 0.13619263227E-09 0.16944035800E-10
 0.80419406106E-10 -.20632659823E-10 0.96555551678E-11 -.35883219730E-10 -.32901490840E-10
 -.63639904310E-11 -.74334890871E-10 0.59110360362E-10 -.29812060238E-09 0.19998636953E-09
 0.40734552479E-09 0.13585750743E-08 0.82573374470E-09 0.22036149499E-08 -.30487653160E-09
 -.53276132120E-09 -.34478100859E-08 0.11130023924E-08 0.50606615581E-08 -.57200800004E-08
 0.24734803479E-08 0.42830118885E-08 -.32196695162E-08 -.24250502090E-08 -.13742983387E-08
 0.13455892893E-08 0.12320658244E-08 0.12345363540E-08 0.51862906116E-09 -.28569086436E-09
 -.17633293000E-09 -.16753825858E-10 0.64530823769E-10 -.27308794964E-10 0.13881175396E-09
 0.46635366939E-11 0.18178166357E-09 0.46551314023E-10 0.23849297339E-09 0.11284675856E-09
 0.28850983874E-09 0.13804281057E-09 0.26227281032E-09 0.16771907148E-09 0.24494747795E-10
 0.12151029154E-09 0.78573216923E-11 0.76787995612E-10 -.20664546054E-10 0.10473663008E-10
 -.36628582522E-10 -.30410746696E-10 -.13000062671E-10 -.71995064795E-10 0.18498788515E-10
 -.15811155417E-09 0.23646503351E-09 -.31249521561E-09 -.40641741048E-09 -.13703849574E-08
 -.73810965778E-09 -.22709025082E-08 0.23643868429E-09 0.35210168492E-09 0.34291395614E-08
 -.84711324067E-09 -.54563482672E-08 0.58400928849E-08 -.22088803301E-08 -.46786463315E-08
 0.32005342527E-08 0.26934662700E-08 0.14810959495E-08 -.13350078379E-08 -.13637729956E-08
 -.13136538311E-08 -.58104632424E-09 0.29122633713E-09 0.12281402911E-09 -.41805491601E-11
 -.47467524232E-10 0.10946536441E-09 -.23666214324E-10 0.14943456186E-09 0.12723104644E-11
 0.18548972718E-09 0.46507137916E-10 0.22351299977E-09 0.77421233163E-10 0.21745098040E-09
 0.58555825868E-10 0.48453317356E-11 0.10213836212E-09 -.81468275187E-11 0.65878106051E-10
 -.23778286369E-10 0.96490509513E-11 -.36674621618E-10 -.28947610099E-10 -.13417142388E-10
 -.66305092544E-10 0.69469197658E-11 -.13712875336E-09 0.77122978837E-10 -.33691706731E-09
 0.33701501899E-09 0.40130708983E-09 0.14534296955E-08 0.71694493072E-09 0.23692214931E-08
 -.21195005072E-09 -.25476270110E-09 -.35152565858E-08 0.47794549508E-09 0.58644280543E-08
 -.59555683747E-08 0.20268942080E-08 0.52056977557E-08 -.31869913444E-08 -.31290152608E-08
 -.17964598585E-08 0.11232437259E-08 0.13337699043E-08 0.12694460429E-08 0.52398409650E-09
 -.41979396019E-09 -.17267882040E-09 -.22304229028E-10 0.70815467094E-10 -.50309962884E-10
 0.12059293553E-09 -.34839356515E-10 0.14746790134E-09 0.12607866028E-11 0.18178944775E-09
 0.36472582058E-10 0.18644482274E-09 0.32977761665E-10 0.14769660642E-09 0.84863807951E-10
 -.25389042416E-10 0.49625234659E-10 -.30658726484E-10 0.64467670028E-11 -.35941840171E-10
 -.30489409076E-10 -.13468691172E-10 -.63295255345E-10 0.48310339819E-11 -.13198206897E-09
 0.43860841428E-10 -.19534908441E-09 0.31842026903E-09 -.38015889048E-09 -.31667152724E-09
 -.14452833527E-08 -.63273041427E-09 -.24891599619E-08 0.12960599372E-09 0.69426151257E-10
 0.35165483543E-08 -.15843891214E-09 -.63577425788E-08 0.61688693718E-08 -.17339498106E-08
 -.57316259435E-08 0.31563954559E-08 0.35149457191E-08 0.19471148726E-08 -.11178371683E-08
 -.14934041596E-08 -.13744261910E-08 -.57954552587E-09 0.44314712101E-09 0.12529533362E-09
 -.53408326195E-11 -.66525904945E-10 0.90729990782E-10 -.63332820254E-10 0.11681663798E-09
 -.34810374220E-10 0.14943397152E-09 0.46624410670E-11 0.16215900358E-09 0.13193005249E-10
 0.13264783603E-09 -.98950198559E-11 -.37832236497E-10 0.33739758018E-10 -.37109846026E-10
 0.20228321559E-11 -.31992506789E-10 -.32935966541E-10 -.12961738305E-10 -.66248825450E-10
 0.48454488430E-11 -.12985986994E-09 0.34017507424E-10 -.18017744204E-09 0.15319679663E-09
 -.36088533301E-09 0.48313291214E-09 0.32930993754E-09 0.15255496710E-08 0.55709896795E-09
 0.25886157264E-08 -.10042624466E-09 0.67455364125E-10 -.35853912964E-08 -.23801637550E-09
 0.69562924310E-08 -.63449018193E-08 0.15552652499E-08 0.64346920798E-08 -.31858553851E-08
 -.42016004004E-08 -.23886471638E-08 0.86290156297E-09 0.14773949423E-08 0.13678314709E-08
 0.51340312024E-09 -.59515576921E-09 -.18413282763E-09 -.21064713268E-10 0.56832060401E-10
 -.82580168520E-10 0.90173147447E-10 -.63356604993E-10 0.12057907833E-09 -.23642896112E-10
 0.13877140574E-09 -.53640480077E-11 0.11912304706E-09 -.19337346336E-10 0.71952713021E-10
 0.22656491506E-10 -.34346521407E-10 0.25412694899E-11 -.18234180541E-10 -.30994041671E-10
 -.63260917563E-11 -.71969495440E-10 0.69849795480E-11 -.13202747099E-09 0.34030327135E-10
 -.18016255400E-09 0.12136047680E-09 -.22851516381E-09 0.40617271901E-09 -.52252134698E-09
 -.25657498433E-09 -.15822129020E-08 -.47670037778E-09 -.27197470004E-08 0.76375575057E-10
 -.21206375912E-09 0.36418241337E-08 0.65513572345E-09 -.76756491447E-08 0.66358242163E-08
 -.13227289000E-08 -.73126057987E-08 0.31216674907E-08 0.49095234623E-08 0.26592867726E-08
 -.82122382940E-09 -.16441810276E-08 -.15323882108E-08 -.55255017597E-09 0.65404308445E-09
 0.16410964112E-09 -.18178380048E-10 -.72125932016E-10 0.66434689387E-10 -.82590617500E-10
 0.90668921701E-10 -.50301959166E-10 0.10944528521E-09 -.27310098648E-10 0.98662877017E-10
 -.28884544804E-10 0.59618304807E-10 -.43292260827E-10 -.17750071963E-10 0.99112855791E-11
 0.13578213120E-10 -.18611740141E-10 0.17519171378E-10 -.74334678101E-10 0.18555106774E-10
 -.13707581735E-09 0.43914730295E-10 -.18017179197E-09 0.12138025730E-09 -.21988797703E-09
 0.24517819126E-09 -.45022512962E-09 0.61669678417E-09 0.20303486090E-09 0.16525986324E-08
 0.37051805280E-09 0.28835841748E-08 -.28442509307E-10 0.36304273544E-09 -.37347647151E-08
 -.11351853033E-08 0.86589844632E-08 -.68929552954E-08 0.12206680424E-08 0.84771356152E-08
 -.32542949610E-08 -.63314192775E-08 -.32350495207E-08 0.54440152262E-09 0.15794559223E-08
 0.16413957980E-08 0.45501726396E-09 -.80326536034E-09 -.21560655230E-09 0.41080099836E-10
 0.39977568557E-10 -.72113388771E-10 0.56792629708E-10 -.66587063549E-10 0.70804527108E-10
 -.47493195307E-10 0.64520508644E-10 -.39210319193E-10 0.39280601313E-10 -.41292310146E-10
 0.12725182812E-10 -.40622185449E-11 0.78546098017E-10 -.16473927248E-10 0.79608558862E-10
 -.85779067341E-10 0.59081651855E-10 -.15815472942E-09 0.77176841291E-10 -.19538806932E-09
 0.15330625345E-09 -.22851101688E-09 0.24518954242E-09 -.32235129819E-09 0.51045815411E-09
 -.72519469084E-09 -.13763751977E-09 -.17714463758E-08 -.24761433142E-09 -.30663369793E-08
 0.36958243900E-11 -.49997740627E-09 0.38485445368E-08 0.16467717204E-08 -.10147509937E-07
 0.68760420333E-08 -.16898637766E-08 -.10286679305E-07 0.42031322239E-08 0.90105479949E-08
 0.26932428246E-08 -.24635993999E-09 -.13975380358E-08 -.21449965805E-08 -.21529726062E-09
 0.91606553436E-09 0.40216376311E-09 -.11369733051E-09 0.41121408596E-10 -.18138298214E-10
 -.21045181727E-10 -.53282330821E-11 -.22271468287E-10 -.41742422429E-11 -.16781662585E-10
 -.14986344176E-10 -.96210659806E-11 -.24885332191E-10 0.26867177167E-10 0.25186643141E-09
 -.13058335909E-09 0.26589516970E-09 -.20570677653E-09 0.22840367169E-09 -.29811082898E-09
 0.23649462450E-09 -.33688180792E-09 0.31840501901E-09 -.36084335780E-09 0.40613365052E-09
 -.45023832824E-09 0.51052130123E-09 -.73501664191E-09 0.96268885048E-09 -.12673381738E-09
 0.20063446675E-08 -.98606966000E-10 0.34086250460E-08 -.16356677587E-09 0.66628661369E-09
 -.43021221560E-08 -.19607416451E-08 0.12725469316E-07 -.55915621927E-08 0.17754944231E-08
 0.86133000311E-08 -.11423030182E-07 -.89155624119E-08 0.15701599244E-08 -.52758558674E-08
 0.29572283520E-08 0.22889087545E-08 -.93700343301E-10 -.88845483944E-09 -.58216584874E-09
 0.40216694667E-09 -.21562030873E-09 0.16410227886E-09 -.18412612383E-09 0.12532816934E-09
 -.17262157272E-09 0.12283475228E-09 -.17631869077E-09 0.13150254552E-09 -.17726470142E-09
 0.17681938725E-09 -.14026057759E-09 0.85903198348E-10 0.13118062745E-09 -.39834122399E-10
 0.15358025415E-09 -.20766380741E-09 0.19998470661E-09 -.31249062472E-09 0.33704126839E-09
 -.38021360693E-09 0.48312613040E-09 -.52254756935E-09 0.61671842698E-09 -.72514218330E-09
 0.96268886942E-09 -.13223512807E-08 0.41606156458E-09 -.24962649145E-08 0.54303906869E-09
 -.41084168324E-08 0.41235671632E-09 -.73377311426E-09 0.62879875587E-08 0.39174880786E-08
 -.12425268681E-07 0.12417755635E-07 0.16142444662E-07 0.55426337311E-08 0.55236007027E-08
 -.12828941776E-07 0.15546591732E-07 0.96413505751E-08 -.10568519102E-07 0.38489287395E-08
 -.31893424237E-08 0.40751172703E-08 -.88842750885E-09 0.91613058736E-09 -.80322681029E-09
 0.65403433310E-09 -.59515585950E-09 0.44313051201E-09 -.41976457308E-09 0.29133584263E-09
 -.28561896054E-09 0.17605308485E-09 -.14491584687E-09 0.12794890313E-09 0.24396952836E-10
 -.41184362545E-09 0.57579033991E-09 -.43340254538E-09 0.47327023894E-09 -.46731579853E-09
 0.40730250347E-09 -.40641983621E-09 0.40132075846E-09 -.31658438050E-09 0.32929690615E-09
 -.25657190435E-09 0.20308592903E-09 -.13763697390E-09 -.12674728303E-09 0.41608820244E-09
 0.40773040096E-09 0.15132984551E-08 0.20678613308E-09 0.32155161706E-08 0.15400549677E-08
 -.20355023152E-08 -.12621201264E-07 -.23284791104E-07 -.74937318573E-08 -.44325093274E-07
 -.23718123022E-07 0.34697966044E-07 0.39134489252E-07 -.29672694647E-07 -.33015760544E-07
 0.17262745323E-07 -.12493746103E-07 0.58002239569E-08 -.22665505913E-08 -.31893484920E-08
 -.93708856972E-10 -.21523238793E-09 0.45506944492E-09 -.55250778352E-09 0.51343956014E-09
 -.57950276955E-09 0.52402874804E-09 -.58102132507E-09 0.51867562066E-09 -.55527778592E-09
 0.55091838582E-09 -.47307624132E-09 0.59991591761E-09 -.11743359502E-08 0.13571186834E-08
 -.12479207040E-08 0.13228571434E-08 -.13394552859E-08 0.13585425352E-08 -.13703356898E-08
 0.14534018696E-08 -.14453083975E-08 0.15255885019E-08 -.15822392263E-08 0.16526308705E-08
 -.17713690944E-08 0.20063034158E-08 -.24962610860E-08 0.15133348336E-08 -.37842821551E-08
 0.20611372620E-08 -.53292198978E-08 -.48460274493E-08 -.10358430557E-07 0.47056795995E-08
 0.12834593643E-07 -.26033508837E-07 -.20277922652E-07 -.37141876456E-07 -.32716403330E-07
 0.40600419103E-07 0.14128408034E-07 -.12165365021E-07 0.44049730134E-07 -.83358822969E-08
 0.61093687140E-08 0.58001977258E-08 0.38489704742E-08 0.22889224404E-08 -.21449080033E-08
 0.16413780225E-08 -.15324510735E-08 0.13678653258E-08 -.13744642003E-08 0.12694697647E-08
 -.13137031531E-08 0.12344767211E-08 -.12638274966E-08 0.12726091137E-08 -.11990583697E-08
 0.13399231477E-08 -.94510694441E-09 0.10727477057E-08 -.90112884294E-09 0.92916088687E-09
 -.85084098468E-09 0.82573335529E-09 -.73812287522E-09 0.71691580612E-09 -.63278058752E-09
 0.55708234167E-09 -.47669510234E-09 0.37050388042E-09 -.24752550185E-09 -.98554596253E-10
 0.54307295033E-09 0.20679726621E-09 0.20611556157E-08 -.43302943758E-09 -.32256931594E-08
 0.32434961420E-08 0.25909704216E-07 0.39256969242E-07 0.25511345076E-07 0.53948891045E-07
 -.39707585608E-07 -.87881034269E-07 0.46441963608E-08 0.88031676698E-07 -.97351824102E-08
 -.78289293381E-07 0.10107892384E-07 -.36672937735E-07 -.83358743623E-08 -.12493761008E-07
 -.10568456059E-07 0.29572381022E-08 -.13975101782E-08 0.15794585062E-08 -.16441781179E-08
 0.14774025371E-08 -.14933581411E-08 0.13338009873E-08 -.13638270832E-08 0.12320482003E-08
 -.12286582019E-08 0.11809943288E-08 -.10750210909E-08 0.11575187975E-08 -.17036346471E-08
 0.19509559577E-08 -.18916344333E-08 0.20571861742E-08 -.20872876345E-08 0.22036149405E-08
 -.22708902552E-08 0.23692036591E-08 -.24891196610E-08 0.25886349668E-08 -.27197648233E-08
 0.28836145859E-08 -.30662642398E-08 0.34086453114E-08 -.41083218929E-08 0.32155296470E-08
 -.53293234328E-08 -.32256735359E-08 -.51010143998E-10 0.37196377761E-07 0.41130502053E-07
 0.53531275830E-07 0.87745399530E-07 0.10128145239E-07 -.21316051979E-07 -.33613157036E-07
 -.44889425510E-07 0.32419791740E-07 -.29904830168E-07 -.30283855423E-08 0.89288435590E-07
 0.10107863005E-07 0.44049721488E-07 0.17262744645E-07 0.96414130763E-08 -.52758558139E-08
 -.24630738318E-09 0.54439211321E-09 -.82128741880E-09 0.86292389128E-09 -.11178531240E-08
 0.11232212071E-08 -.13349765726E-08 0.13455838487E-08 -.14943084896E-08 0.15661549855E-08
 -.15936000000E-08 0.17964150372E-08 0.78886226337E-09 -.52672708686E-09 0.57939397305E-09
 -.41136945384E-09 0.38955957042E-09 -.30488883841E-09 0.23644434160E-09 -.21193646172E-09
 0.12959368407E-09 -.10051436214E-09 0.76356655271E-10 -.28431760332E-10 0.36747053162E-11
 -.16356058210E-09 0.41236938245E-09 0.15400955737E-08 -.48460267024E-08 0.32434960725E-08
 0.37196358514E-07 0.45810145872E-07 0.48138780630E-07 0.92447659958E-07 0.34663232312E-07
 0.83282322927E-07 -.33005179700E-07 -.15351551674E-06 0.67723329167E-08 0.15094279693E-06
 -.77679942478E-08 -.67059755526E-08 -.30284341701E-08 -.78289275895E-07 -.12165356028E-07
 -.33015714170E-07 0.15546678539E-07 0.15701546438E-08 0.26932101813E-08 -.32350289433E-08
 0.26593090473E-08 -.23886796742E-08 0.19471660899E-08 -.17964629085E-08 0.14811316751E-08
 -.13743209802E-08 0.11590745762E-08 -.10257246627E-08 0.96218353825E-09 -.71988415120E-09
 0.13868084808E-08 -.10580561809E-08 0.10220347987E-08 -.79055002279E-09 0.67409981483E-09
 -.53270895546E-09 0.35212282088E-09 -.25475650945E-09 0.69363965542E-10 0.67401218031E-10
 -.21206417983E-09 0.36308072248E-09 -.50003817210E-09 0.66631002637E-09 -.73374031160E-09
 -.20355006754E-08 -.10358409850E-07 0.25909731899E-07 0.41130546926E-07 0.48138799190E-07
 0.87614905817E-07 0.48872789038E-07 0.13067314586E-06 -.92661665008E-08 -.16332422170E-06
 -.28361633042E-08 0.14173576446E-06 0.11774680786E-07 -.18134356772E-06 -.77679525035E-08
 -.29904856591E-07 -.97351474382E-08 0.14128357380E-07 -.29672740319E-07 -.12828866145E-07
 -.89154823553E-08 0.90104922505E-08 -.63313644882E-08 0.49094975130E-08 -.42016440394E-08
 0.35149177817E-08 -.31289671550E-08 0.26934635823E-08 -.24250528038E-08 0.21256424078E-08
 -.18697318372E-08 0.17331884157E-08 -.14017337121E-08 0.33892961191E-08 -.32743159317E-08
 0.33940511832E-08 -.33625086055E-08 0.33971466188E-08 -.34477856655E-08 0.34291229564E-08
 -.35152316527E-08 0.35165142116E-08 -.35854180012E-08 0.36418107313E-08 -.37347501772E-08
 0.38485606677E-08 -.43021106567E-08 0.62879334380E-08 -.12621221498E-07 0.47056476757E-08
 0.39256956509E-07 0.53531273301E-07 0.92447682939E-07 0.48872823261E-07 0.13915063368E-06
 0.57457469893E-08 -.11878893957E-06 -.31308786674E-08 0.19647870886E-07 0.10481159052E-07
 -.11957132529E-06 0.11774915265E-07 0.15094275874E-06 0.32419750662E-07 0.88031707757E-07
 0.40600346488E-07 0.39134474550E-07 0.55235376728E-08 -.11423014935E-07 0.42031268976E-08
 -.32542624910E-08 0.31216721156E-08 -.31858327581E-08 0.31564152732E-08 -.31869612050E-08
 0.32004855241E-08 -.32196822743E-08 0.32482988495E-08 -.32252972089E-08 0.33332393297E-08
 -.32215168546E-08 -.25291491541E-08 0.23416674810E-08 -.19828013519E-08 0.17288234396E-08
 -.14395181932E-08 0.11130118335E-08 -.84713034036E-09 0.47791930742E-09 -.15838670470E-09
 -.23803229306E-09 0.65513464033E-09 -.11351769347E-08 0.16467968126E-08 -.19607584615E-08
 0.39174652081E-08 -.23284774833E-07 0.12834569908E-07 0.25511359667E-07 0.87745383043E-07
 0.34663242415E-07 0.13067313143E-06 0.57457389957E-08 -.93088146969E-07 -.10895178093E-07
 -.75945820299E-07 0.63689640228E-08 0.40427551085E-07 0.10481159052E-07 0.14173580354E-06
 0.67721881436E-08 -.44889328699E-07 0.46441733792E-08 -.32716329694E-07 0.34698012928E-07
 0.55426181637E-08 0.86132900478E-08 -.10286644598E-07 0.84771680404E-08 -.73126292553E-08
 0.64346815740E-08 -.57316203963E-08 0.52057641087E-08 -.46786104231E-08 0.42830793697E-08
 -.38649828697E-08 0.35633170703E-08 -.31493515866E-08 0.29484637636E-08 -.35831637303E-08
 0.39147943885E-08 -.41258483661E-08 0.44378773281E-08 -.47412768781E-08 0.50606720485E-08
 -.54562374151E-08 0.58643600389E-08 -.63575212572E-08 0.69562737406E-08 -.76756018812E-08
 0.86589230173E-08 -.10147662130E-07 0.12725414684E-07 -.12425309330E-07 -.74937701802E-08
 -.26033555368E-07 0.53948938514E-07 0.10128092975E-07 0.83282291063E-07 -.92661678330E-08
 -.11878882944E-06 -.10895149671E-07 -.10657356597E-06 0.11399606592E-07 0.13505177776E-06
 0.63687366492E-08 0.19647927729E-07 -.28363764670E-08 -.15351543858E-06 -.33613101191E-07
 -.87881177405E-07 -.37141853690E-07 -.23718085427E-07 0.16142450226E-07 0.17754491564E-08
 -.16898892470E-08 0.12206442422E-08 -.13226110035E-08 0.15552751733E-08 -.17338043405E-08
 0.20268167438E-08 -.22089397444E-08 0.24734482084E-08 -.26716612017E-08 0.29437140478E-08
 -.31100497505E-08 0.34296665733E-08 0.55390021458E-08 -.54754345599E-08 0.55604689342E-08
 -.55616726973E-08 0.56450838087E-08 -.57199950709E-08 0.58396339156E-08 -.59555221467E-08
 0.61693562178E-08 -.63448792270E-08 0.66359778785E-08 -.68926300292E-08 0.68760939060E-08
 -.55913647708E-08 0.12417769775E-07 -.44325279348E-07 -.20277788946E-07 -.39707422649E-07
 -.21316427179E-07 -.33005174149E-07 -.16332402453E-06 -.31309781434E-08 -.75945877143E-07
 0.11399606592E-07 0.15727709979E-06 0.11399606592E-07 -.75945763456E-07 -.31310491977E-08
 -.16332409203E-06 -.33005062905E-07 -.21316560517E-07 -.39707380654E-07 -.20277866778E-07
 -.44325216134E-07 0.12417787818E-07 -.55913793586E-08 0.68760828248E-08 -.68925947970E-08
 0.66359836403E-08 -.63448695272E-08 0.61693516155E-08 -.59555184672E-08 0.58396291834E-08
 -.57200020245E-08 0.56450849694E-08 -.55616722917E-08 0.55604622094E-08 -.54754241823E-08
 -.35831753105E-08 0.34296736385E-08 -.31100605991E-08 0.29437277824E-08 -.26716748784E-08
 0.24734794827E-08 -.22089558085E-08 0.20268332531E-08 -.17338252076E-08 0.15552932376E-08
 -.13226482296E-08 0.12206504263E-08 -.16899206997E-08 0.17755086944E-08 0.16142396748E-07
 -.23718090646E-07 -.37141915661E-07 -.87881151370E-07 -.33613137496E-07 -.15351546967E-06
 -.28362805438E-08 0.19647927729E-07 0.63689640228E-08 0.13505177776E-06 0.11399606592E-07
 -.10657333860E-06 -.10895149671E-07 -.11878895378E-06 -.92660212836E-08 0.83282144070E-07
 0.10128074643E-07 0.53948836624E-07 -.26033619644E-07 -.74937659406E-08 -.12425272719E-07
 0.12725388724E-07 -.10147664294E-07 0.86589465803E-08 -.76755970811E-08 0.69562808995E-08
 -.63575280341E-08 0.58643718961E-08 -.54562457950E-08 0.50606751797E-08 -.47412819812E-08
 0.44378846110E-08 -.41258657452E-08 0.39148098105E-08 -.25291379820E-08 0.29484634933E-08
 -.31493433423E-08 0.35633067194E-08 -.38649738961E-08 0.42830832833E-08 -.46786016405E-08
 0.52057463021E-08 -.57316074822E-08 0.64346728972E-08 -.73126336039E-08 0.84771495372E-08
 -.10286645284E-07 0.86133046549E-08 0.55426343571E-08 0.34697988220E-07 -.32716378211E-07
 0.46441915313E-08 -.44889391315E-07 0.67723044950E-08 0.14173581064E-06 0.10481159052E-07
 0.40427494241E-07 0.63687366492E-08 -.75945706612E-07 -.10895121250E-07 -.93088235786E-07
 0.57458704461E-08 0.13067298710E-06 0.34663231896E-07 0.87745360096E-07 0.25511272500E-07
 0.12834523996E-07 -.23284799345E-07 0.39175114065E-08 -.19608064289E-08 0.16468203279E-08
 -.11351864846E-08 0.65515914130E-09 -.23804944901E-09 -.15837027811E-09 0.47790259080E-09
 -.84711611811E-09 0.11129932784E-08 -.14395082096E-08 0.17288086958E-08 -.19828007696E-08
 0.23416683202E-08 0.33892957721E-08 -.32215188703E-08 0.33332436075E-08 -.32252980818E-08
 0.32483017139E-08 -.32196846115E-08 0.32004887495E-08 -.31869754224E-08 0.31564294295E-08
 -.31858394831E-08 0.31216718572E-08 -.32542752590E-08 0.42031354386E-08 -.11423019499E-07
 0.55235794376E-08 0.39134467720E-07 0.40600384291E-07 0.88031715917E-07 0.32419769536E-07
 0.15094278094E-06 0.11774741182E-07 -.11957135371E-06 0.10481187473E-07 0.19647927729E-07
 -.31309213000E-08 -.11878906037E-06 0.57459059732E-08 0.13915050112E-06 0.48872798558E-07
 0.92447747520E-07 0.53531210981E-07 0.39256937467E-07 0.47055478220E-08 -.12621186213E-07
 0.62879235777E-08 -.43021010930E-08 0.38485515007E-08 -.37347240842E-08 0.36418090355E-08
 -.35854117340E-08 0.35165078095E-08 -.35152412008E-08 0.34291190566E-08 -.34477854673E-08
 0.33971415035E-08 -.33625081022E-08 0.33940467985E-08 -.32743170667E-08 0.13868074763E-08
 -.14017345274E-08 0.17331913553E-08 -.18697292806E-08 0.21256435800E-08 -.24250536209E-08
 0.26934626965E-08 -.31289605934E-08 0.35149250014E-08 -.42016445949E-08 0.49094932732E-08
 -.63313647244E-08 0.90104980975E-08 -.89154841371E-08 -.12828867376E-07 -.29672754195E-07
 0.14128364034E-07 -.97352174655E-08 -.29904872356E-07 -.77680448740E-08 -.18134354640E-06
 0.11774847763E-07 0.14173581420E-06 -.28363977833E-08 -.16332429809E-06 -.92659648843E-08
 0.13067300420E-06 0.48872759256E-07 0.87614965734E-07 0.48138787385E-07 0.41130577198E-07
 0.25909634491E-07 -.10358429102E-07 -.20354862490E-08 -.73373574807E-09 0.66630590121E-09
 -.50003672809E-09 0.36309405087E-09 -.21205644304E-09 0.67400786133E-10 0.69361889562E-10
 -.25476143702E-09 0.35212244555E-09 -.53269762852E-09 0.67410018447E-09 -.79054996481E-09
 0.10220353089E-08 -.10580643073E-08 0.78885968397E-09 -.71986382779E-09 0.96218164008E-09
 -.10257199873E-08 0.11590744147E-08 -.13743220019E-08 0.14811291219E-08 -.17964542416E-08
 0.19471691665E-08 -.23886772841E-08 0.26593088339E-08 -.32350245115E-08 0.26932067035E-08
 0.15701743126E-08 0.15546660510E-07 -.33015701962E-07 -.12165326572E-07 -.78289246669E-07
 -.30283447972E-08 -.67059180431E-08 -.77679254140E-08 0.15094272587E-06 0.67722005781E-08
 -.15351546390E-06 -.33005057132E-07 0.83282164276E-07 0.34663215381E-07 0.92447699988E-07
 0.48138764237E-07 0.45810202940E-07 0.37196284751E-07 0.32434377334E-08 -.48460301238E-08
 0.15401082391E-08 0.41236673142E-09 -.16356089083E-09 0.36685928418E-11 -.28428623212E-10
 0.76358953813E-10 -.10051085490E-09 0.12958929450E-09 -.21193659806E-09 0.23644101376E-09
 -.30487617168E-09 0.38955898720E-09 -.41136615979E-09 0.57939431924E-09 -.52674387447E-09
 -.17036358991E-08 0.17964448124E-08 -.15936084726E-08 0.15661596046E-08 -.14943092087E-08
 0.13455807541E-08 -.13349793830E-08 0.11232303156E-08 -.11178579444E-08 0.86292780209E-09
 -.82128425671E-09 0.54439891523E-09 -.24631433620E-09 -.52758335512E-08 0.96413892542E-08
 0.17262748718E-07 0.44049724826E-07 0.10107862880E-07 0.89288416993E-07 -.30284584840E-08
 -.29904927423E-07 0.32419770868E-07 -.44889293171E-07 -.33613021033E-07 -.21316243104E-07
 0.10127995317E-07 0.87745389912E-07 0.53531210025E-07 0.41130543961E-07 0.37196302854E-07
 -.51074077422E-10 -.32256810126E-08 -.53293151238E-08 0.32155202726E-08 -.41083047751E-08
 0.34086426439E-08 -.30662610093E-08 0.28836069710E-08 -.27197605849E-08 0.25886329068E-08
 -.24891203314E-08 0.23691940578E-08 -.22708899857E-08 0.22036142357E-08 -.20872836946E-08
 0.20571883828E-08 -.18916370823E-08 0.19509379637E-08 -.94510598455E-09 0.11575284772E-08
 -.10750261827E-08 0.11809955502E-08 -.12286517591E-08 0.12320394347E-08 -.13638261837E-08
 0.13338059863E-08 -.14933571113E-08 0.14774022332E-08 -.16441713846E-08 0.15794572470E-08
 -.13975098576E-08 0.29572372775E-08 -.10568459754E-07 -.12493761559E-07 -.83358853570E-08
 -.36672984052E-07 0.10107882434E-07 -.78289246419E-07 -.97351599559E-08 0.88031704287E-07
 0.46442039381E-08 -.87881142502E-07 -.39707609409E-07 0.53948782042E-07 0.25511258308E-07
 0.39256938050E-07 0.25909620429E-07 0.32434372733E-08 -.32257078109E-08 -.43300689636E-09
 0.20611375006E-08 0.20680004659E-09 0.54308267848E-09 -.98548920625E-10 -.24752606331E-09
 0.37050386079E-09 -.47669517167E-09 0.55708177222E-09 -.63277986089E-09 0.71691002293E-09
 -.73812221812E-09 0.82573065050E-09 -.85083929320E-09 0.92916210989E-09 -.90112759929E-09
 0.10727409179E-08 -.11743364175E-08 0.13399116564E-08 -.11990578848E-08 0.12726101312E-08
 -.12638196651E-08 0.12344730886E-08 -.13137036717E-08 0.12694665075E-08 -.13744639959E-08
 0.13678662307E-08 -.15324514651E-08 0.16413777218E-08 -.21449084248E-08 0.22889213780E-08
 0.38489766931E-08 0.58002043112E-08 0.61093888490E-08 -.83358912689E-08 0.44049752325E-07
 -.12165336988E-07 0.14128305754E-07 0.40600379128E-07 -.32716299017E-07 -.37141753832E-07
 -.20277980878E-07 -.26033617323E-07 0.12834526278E-07 0.47055499925E-08 -.10358441052E-07
 -.48460405280E-08 -.53291989477E-08 0.20611449647E-08 -.37842734060E-08 0.15133329268E-08
 -.24962534289E-08 0.20063129533E-08 -.17713686383E-08 0.16526235443E-08 -.15822439523E-08
 0.15255885629E-08 -.14453091257E-08 0.14534194554E-08 -.13703359648E-08 0.13585443724E-08
 -.13394598235E-08 0.13228596615E-08 -.12479121576E-08 0.13571133793E-08 -.41184220193E-09
 0.59992288894E-09 -.47307375645E-09 0.55091527599E-09 -.55526830943E-09 0.51866929549E-09
 -.58101966700E-09 0.52401607849E-09 -.57949841247E-09 0.51343753407E-09 -.55250750666E-09
 0.45507196798E-09 -.21523004768E-09 -.93695203072E-10 -.31893422086E-08 -.22665607080E-08
 0.58002109214E-08 -.12493788734E-07 0.17262715155E-07 -.33015721646E-07 -.29672728120E-07
 0.39134479315E-07 0.34698006236E-07 -.23718101706E-07 -.44325012730E-07 -.74937505088E-08
 -.23284834257E-07 -.12621149849E-07 -.20354640809E-08 0.15400511723E-08 0.32155062289E-08
 0.20680798893E-09 0.15133015350E-08 0.40772941054E-09 0.41608614363E-09 -.12674084179E-09
 -.13763629455E-09 0.20308509621E-09 -.25657124022E-09 0.32929624208E-09 -.31658582819E-09
 0.40133735042E-09 -.40641868178E-09 0.40730647861E-09 -.46731900985E-09 0.47327085246E-09