unknown system                          
   1.00000000000000     
     0.000004    2.028818    2.028818
     2.028818    0.000004    2.028818
     2.028818    2.028818    0.000004
   Li   F 
     1     1
Direct
  0.000000  0.000000  1.000000
  0.500000  0.500000  0.500000
 
   48   48   48
 0.15852924375E+04 0.80291322306E+03 0.41538527714E+03 0.21921263377E+03 0.11785312369E+03
 0.64454519683E+02 0.35852642420E+02 0.20336995512E+02 0.11834214870E+02 0.71493358727E+01
 0.45554087085E+01 0.31289699605E+01 0.23077606452E+01 0.19210729077E+01 0.17142263174E+01
 0.16168351052E+01 0.15833113801E+01 0.15859766688E+01 0.16061122156E+01 0.16336601087E+01
 0.16613688318E+01 0.16862900705E+01 0.17051361982E+01 0.17173666278E+01 0.17211677127E+01
 0.17173666216E+01 0.17051361862E+01 0.16862900521E+01 0.16613688082E+01 0.16336600774E+01
 0.16061121767E+01 0.15859766141E+01 0.15833113034E+01 0.16168349828E+01 0.17142261275E+01
 0.19210725911E+01 0.23077601313E+01 0.31289689831E+01 0.45554069751E+01 0.71493327866E+01
 0.11834209323E+02 0.20336985466E+02 0.35852624044E+02 0.64454485657E+02 0.11785305975E+03
 0.21921251143E+03 0.41538503819E+03 0.80291274702E+03 0.80291329511E+03 0.49463873664E+03
 0.27430664858E+03 0.15022418239E+03 0.82750671425E+02 0.46098458647E+02 0.26066935236E+02
 0.15044569441E+02 0.89463258951E+01 0.55631240298E+01 0.36861601694E+01 0.26518004850E+01
 0.20768620362E+01 0.17948325259E+01 0.16551678099E+01 0.15948134655E+01 0.15844548367E+01
 0.15976884231E+01 0.16236871633E+01 0.16519558890E+01 0.16793068425E+01 0.17014980605E+01
 0.17174448619E+01 0.17255732026E+01 0.17255709629E+01 0.17174656137E+01 0.17014532645E+01
 0.16793491877E+01 0.16519408773E+01 0.16237033112E+01 0.15976735756E+01 0.15844580289E+01
 0.15948106116E+01 0.16551623419E+01 0.17948480638E+01 0.20768314808E+01 0.26518434838E+01
 0.36860877418E+01 0.55633543409E+01 0.89462477023E+01 0.15045055140E+02 0.26066691317E+02
 0.46099303776E+02 0.82751076658E+02 0.15022445603E+03 0.27430814994E+03 0.49463817071E+03
 0.80291323043E+03 0.41538531413E+03 0.27430665783E+03 0.16399240357E+03 0.94719751199E+02
 0.54227203938E+02 0.31141945900E+02 0.18096758306E+02 0.10744381685E+02 0.66099107415E+01
 0.42863974551E+01 0.29953451804E+01 0.22500453390E+01 0.18935512093E+01 0.17057963011E+01
 0.16180755392E+01 0.15915961217E+01 0.15977290117E+01 0.16210784879E+01 0.16501986301E+01
 0.16798725717E+01 0.17056400524E+01 0.17256853145E+01 0.17381149417E+01 0.17424731569E+01
 0.17380968570E+01 0.17257081932E+01 0.17056411407E+01 0.16798478683E+01 0.16501941404E+01
 0.16210789550E+01 0.15977370708E+01 0.15915988080E+01 0.16180810994E+01 0.17057883221E+01
 0.18935785974E+01 0.22500147997E+01 0.29952747674E+01 0.42864808448E+01 0.66102960730E+01
 0.10744501826E+02 0.18097259461E+02 0.31141875252E+02 0.54227851582E+02 0.94719941537E+02
 0.16399281139E+03 0.27430759302E+03 0.41538611100E+03 0.49463836258E+03 0.21921265314E+03
 0.15022418979E+03 0.94719753129E+02 0.57370402386E+02 0.34183185072E+02 0.20336890290E+02
 0.12234041484E+02 0.75474685274E+01 0.48596293877E+01 0.33343471654E+01 0.24759142936E+01
 0.20006155699E+01 0.17645904829E+01 0.16498090540E+01 0.16059025341E+01 0.16045869181E+01
 0.16246398577E+01 0.16547937941E+01 0.16867726382E+01 0.17166526552E+01 0.17409862375E+01
 0.17583345942E+01 0.17671405133E+01 0.17671875460E+01 0.17582809098E+01 0.17410370256E+01
 0.17166011388E+01 0.16868463169E+01 0.16547482827E+01 0.16246810261E+01 0.16045342274E+01
 0.16059393299E+01 0.16497710983E+01 0.17646138264E+01 0.20006035467E+01 0.24759652908E+01
 0.33344328329E+01 0.48594701582E+01 0.75473761481E+01 0.12233910579E+02 0.20337263302E+02
 0.34183539904E+02 0.57371294762E+02 0.94720434457E+02 0.15022488102E+03 0.21921264989E+03
 0.27430766117E+03 0.27430828581E+03 0.11785313403E+03 0.82750676206E+02 0.54227205749E+02
 0.34183185567E+02 0.21166055897E+02 0.13085716851E+02 0.82052455763E+01 0.53144854734E+01
 0.36272782484E+01 0.26601176369E+01 0.21036199845E+01 0.18255382351E+01 0.16858590857E+01
 0.16249503968E+01 0.16164878751E+01 0.16326916267E+01 0.16644286523E+01 0.16983856212E+01
 0.17333257986E+01 0.17617645028E+01 0.17851750647E+01 0.17983144701E+01 0.18040159311E+01
 0.17983383801E+01 0.17851538264E+01 0.17617621503E+01 0.17333289337E+01 0.16983598390E+01
 0.16644312395E+01 0.16326909979E+01 0.16165033229E+01 0.16249427021E+01 0.16858904156E+01
 0.18255088525E+01 0.21035900770E+01 0.26601255056E+01 0.36275321762E+01 0.53145746299E+01
 0.82054289832E+01 0.13085536660E+02 0.21165576938E+02 0.34183379285E+02 0.54226561503E+02
 0.82751107236E+02 0.11785433641E+03 0.15022490780E+03 0.16399287232E+03 0.15022453591E+03
 0.64454525306E+02 0.46098461550E+02 0.31141947210E+02 0.20336890794E+02 0.13085716993E+02
 0.84429983987E+01 0.55681515195E+01 0.38277413349E+01 0.28032009625E+01 0.21888535713E+01
 0.18818546228E+01 0.17205234101E+01 0.16466660098E+01 0.16302375222E+01 0.16444015851E+01
 0.16763355190E+01 0.17139988525E+01 0.17528179117E+01 0.17873800329E+01 0.18158682443E+01
 0.18356491912E+01 0.18459653712E+01 0.18459626843E+01 0.18356320172E+01 0.18159069848E+01
 0.17873604659E+01 0.17528342619E+01 0.17139909727E+01 0.16763685130E+01 0.16443563473E+01
 0.16302813732E+01 0.16465845999E+01 0.17206167636E+01 0.18817971481E+01 0.21889774948E+01
 0.28029926466E+01 0.38279371361E+01 0.55677893874E+01 0.84432203031E+01 0.13086005216E+02
 0.20337057030E+02 0.31143245427E+02 0.46099206372E+02 0.64454932021E+02 0.82751118607E+02
 0.94720461905E+02 0.94719982587E+02 0.82751121729E+02 0.35852645520E+02 0.26066936956E+02
 0.18096759168E+02 0.12234041874E+02 0.82052457280E+01 0.55681515634E+01 0.38988258079E+01
 0.28810949602E+01 0.22456519595E+01 0.19250633431E+01 0.17498219780E+01 0.16668858624E+01
 0.16443379898E+01 0.16569182042E+01 0.16896283923E+01 0.17307709113E+01 0.17742874011E+01
 0.18147625682E+01 0.18496260774E+01 0.18758609527E+01 0.18924978084E+01 0.18979096473E+01
 0.18924968433E+01 0.18758492582E+01 0.18496242360E+01 0.18147346348E+01 0.17743339087E+01
 0.17307014084E+01 0.16896846504E+01 0.16568436863E+01 0.16444521207E+01 0.16667652720E+01
 0.17499271838E+01 0.19248806210E+01 0.22459883692E+01 0.28809648283E+01 0.38992585361E+01
 0.55679292993E+01 0.82052007943E+01 0.12234369457E+02 0.18096007657E+02 0.26067274194E+02
 0.35853241063E+02 0.46099211472E+02 0.54226574192E+02 0.57371315266E+02 0.54227876811E+02
 0.46099328984E+02 0.20336997241E+02 0.15044570451E+02 0.10744382228E+02 0.75474687969E+01
 0.53144855954E+01 0.38277413826E+01 0.28810949739E+01 0.22660456282E+01 0.19483383327E+01
 0.17694866512E+01 0.16822452359E+01 0.16565548088E+01 0.16683147578E+01 0.17023737824E+01
 0.17470043787E+01 0.17954339776E+01 0.18421026003E+01 0.18836887603E+01 0.19171671228E+01
 0.19406555097E+01 0.19527530938E+01 0.19527304852E+01 0.19407101410E+01 0.19171111172E+01
 0.18837634364E+01 0.18420351665E+01 0.17954912490E+01 0.17469443672E+01 0.17024744081E+01
 0.16681859092E+01 0.16566906946E+01 0.16821201518E+01 0.17696971638E+01 0.19479825670E+01
 0.22663395747E+01 0.28806886272E+01 0.38280781743E+01 0.53146868375E+01 0.75469240544E+01
 0.10745592304E+02 0.15044647601E+02 0.20336651935E+02 0.26067276578E+02 0.31143251461E+02
 0.34183389508E+02 0.34183553496E+02 0.31141890203E+02 0.26066705413E+02 0.11834215843E+02
 0.89463264843E+01 0.66099110746E+01 0.48596295646E+01 0.36272783349E+01 0.28032010019E+01
 0.22456519731E+01 0.19483383368E+01 0.17761991086E+01 0.16908445412E+01 0.16646955321E+01
 0.16771152637E+01 0.17127414053E+01 0.17610668151E+01 0.18142563952E+01 0.18672467274E+01
 0.19157983331E+01 0.19569388597E+01 0.19880769736E+01 0.20075202642E+01 0.20141208608E+01
 0.20074854139E+01 0.19880948183E+01 0.19569066133E+01 0.19158313963E+01 0.18671794587E+01
 0.18143546266E+01 0.17609282337E+01 0.17128808964E+01 0.16769420938E+01 0.16648610804E+01
 0.16905944738E+01 0.17765927326E+01 0.19480293747E+01 0.22461283451E+01 0.28031339625E+01
 0.36268859617E+01 0.48606464596E+01 0.66088514455E+01 0.89468925921E+01 0.11835030208E+02
 0.15044648750E+02 0.18096010594E+02 0.20337062164E+02 0.21165584139E+02 0.20337271808E+02
 0.18097268173E+02 0.15045063053E+02 0.71493364234E+01 0.55631243738E+01 0.42863976565E+01
 0.33343472762E+01 0.26601176952E+01 0.21888535966E+01 0.19250633542E+01 0.17694866550E+01
 0.16908445418E+01 0.16675513155E+01 0.16817199099E+01 0.17196121840E+01 0.17713052630E+01
 0.18291232443E+01 0.18881365688E+01 0.19436412025E+01 0.19926616697E+01 0.20318251208E+01
 0.20594799923E+01 0.20734592637E+01 0.20736390035E+01 0.20593133667E+01 0.20320186916E+01
 0.19924531076E+01 0.19438643028E+01 0.18879174294E+01 0.18293395347E+01 0.17710737668E+01
 0.17198882417E+01 0.16814787319E+01 0.16678665150E+01 0.16904261869E+01 0.17697790935E+01
 0.19246988926E+01 0.21888180404E+01 0.26608962196E+01 0.33333062519E+01 0.42879476551E+01
 0.55626709218E+01 0.71485680784E+01 0.89468931599E+01 0.10745593763E+02 0.12234372064E+02
 0.13086009013E+02 0.13085541393E+02 0.12233915752E+02 0.10744506867E+02 0.89462521555E+01
 0.45554090220E+01 0.36861603679E+01 0.29953453002E+01 0.24759143620E+01 0.21036200182E+01
 0.18818546400E+01 0.17498219852E+01 0.16822452381E+01 0.16646955319E+01 0.16817199093E+01
 0.17221387240E+01 0.17766230502E+01 0.18387224555E+01 0.19029906426E+01 0.19653054091E+01
 0.20217632007E+01 0.20694458661E+01 0.21054230188E+01 0.21279857769E+01 0.21355388728E+01
 0.21279961029E+01 0.21053976427E+01 0.20694513834E+01 0.20217572839E+01 0.19652976820E+01
 0.19029591482E+01 0.18387740882E+01 0.17765495567E+01 0.17221181265E+01 0.16816620328E+01
 0.16647962320E+01 0.16823279354E+01 0.17497300041E+01 0.18824370112E+01 0.21022501412E+01
 0.24776469886E+01 0.29935252807E+01 0.36865428534E+01 0.45569242290E+01 0.55626712069E+01
 0.66088521832E+01 0.75469253924E+01 0.82052027992E+01 0.84432229036E+01 0.82054319727E+01
 0.75473792357E+01 0.66102989772E+01 0.55633568666E+01 0.31289701387E+01 0.26518006015E+01
 0.22500454029E+01 0.20006156080E+01 0.18255382555E+01 0.17205234193E+01 0.16668858654E+01
 0.16565548081E+01 0.16771152615E+01 0.17196121815E+01 0.17766230487E+01 0.18419363940E+01
 0.19108511371E+01 0.19788728783E+01 0.20425416730E+01 0.20981527507E+01 0.21429118971E+01
 0.21741593575E+01 0.21902940570E+01 0.21902645956E+01 0.21741736454E+01 0.21428956089E+01
 0.20981884173E+01 0.20424955315E+01 0.19789430246E+01 0.19108083042E+01 0.18419642497E+01
 0.17766720417E+01 0.17196464872E+01 0.16770756080E+01 0.16564100224E+01 0.16670791065E+01
 0.17198608987E+01 0.18268676722E+01 0.19992785205E+01 0.22508105880E+01 0.26530332488E+01
 0.31262689398E+01 0.36865429998E+01 0.42879480334E+01 0.48606471530E+01 0.53146878982E+01
 0.55679307197E+01 0.55677910895E+01 0.53145764736E+01 0.48594719880E+01 0.42864825191E+01
 0.36860891687E+01 0.23077607378E+01 0.20768620973E+01 0.18935512479E+01 0.17645905043E+01
 0.16858590963E+01 0.16466660133E+01 0.16443379888E+01 0.16683147544E+01 0.17127414009E+01
 0.17713052586E+01 0.18387224518E+01 0.19108511349E+01 0.19835257291E+01 0.20533010043E+01
 0.21162326553E+01 0.21693368044E+01 0.22094468585E+01 0.22345776801E+01 0.22430433486E+01
 0.22345792102E+01 0.22094684498E+01 0.21693108515E+01 0.21162252848E+01 0.20532820505E+01
 0.19834877348E+01 0.19108090067E+01 0.18386926070E+01 0.17712881670E+01 0.17127680580E+01
 0.16683966241E+01 0.16441728789E+01 0.16472068090E+01 0.16848869521E+01 0.17652494877E+01
 0.18937608206E+01 0.20750853513E+01 0.23096735323E+01 0.26530333244E+01 0.29935254753E+01
 0.33333066130E+01 0.36268865245E+01 0.38280789470E+01 0.38992594913E+01 0.38279382109E+01
 0.36275332889E+01 0.33344339006E+01 0.29952757317E+01 0.26518443114E+01 0.19210729630E+01
 0.17948325612E+01 0.17057963217E+01 0.16498090647E+01 0.16249503998E+01 0.16302375203E+01
 0.16569181994E+01 0.17023737758E+01 0.17610668078E+01 0.18291232371E+01 0.19029906363E+01
 0.19788728736E+01 0.20533010016E+01 0.21224058394E+01 0.21830025133E+01 0.22315952176E+01
 0.22657321212E+01 0.22832318267E+01 0.22832782918E+01 0.22656729789E+01 0.22316201672E+01
 0.21829590407E+01 0.21224862995E+01 0.20532294953E+01 0.19789856616E+01 0.19029411785E+01
 0.18290775740E+01 0.17609568102E+01 0.17024320206E+01 0.16570597367E+01 0.16297985825E+01
 0.16256859817E+01 0.16494731318E+01 0.17054194655E+01 0.17960834296E+01 0.19204454839E+01
 0.20750853882E+01 0.22508106824E+01 0.24776471795E+01 0.26608965212E+01 0.28031343829E+01
 0.28806891607E+01 0.28809654493E+01 0.28029933181E+01 0.26601261800E+01 0.24759659197E+01
 0.22500153074E+01 0.20768319207E+01 0.17142263477E+01 0.16551678287E+01 0.16180755489E+01
 0.16059025364E+01 0.16164878728E+01 0.16444015794E+01 0.16896283842E+01 0.17470043694E+01
 0.18142563852E+01 0.18881365589E+01 0.19653053999E+01 0.20425416651E+01 0.21162326496E+01
 0.21830025102E+01 0.22391422693E+01 0.22818182604E+01 0.23083967729E+01 0.23174971104E+01
 0.23084008595E+01 0.22818193444E+01 0.22391954108E+01 0.21830203406E+01 0.21162989059E+01
 0.20426552383E+01 0.19653324442E+01 0.18882342191E+01 0.18142933763E+01 0.17469266286E+01
 0.16893953290E+01 0.16448486486E+01 0.16157471138E+01 0.16061972762E+01 0.16183721429E+01
 0.16543990735E+01 0.17144384175E+01 0.17960834497E+01 0.18937608719E+01 0.19992786156E+01
 0.21022502910E+01 0.21888182505E+01 0.22461286155E+01 0.22663398966E+01 0.22459887270E+01
 0.21889778666E+01 0.21035904460E+01 0.20006038947E+01 0.18935789090E+01 0.17948483290E+01
 0.16168351215E+01 0.15948134735E+01 0.15915961232E+01 0.16045869152E+01 0.16326916200E+01
 0.16763355095E+01 0.17307708999E+01 0.17954339649E+01 0.18672467141E+01 0.19436411892E+01
 0.20217631881E+01 0.20981527396E+01 0.21693367952E+01 0.22315952111E+01 0.22818182569E+01
 0.23169744927E+01 0.23351531689E+01 0.23351170627E+01 0.23170111645E+01 0.22818114345E+01
 0.22315953677E+01 0.21692426256E+01 0.20981128914E+01 0.20216908928E+01 0.19438348713E+01
 0.18673813705E+01 0.17954331717E+01 0.17307448031E+01 0.16760733740E+01 0.16334488863E+01
 0.16043804825E+01 0.15912649721E+01 0.15954169324E+01 0.16165853549E+01 0.16543990844E+01
 0.17054194936E+01 0.17652495397E+01 0.18268677543E+01 0.18824371281E+01 0.19246990466E+01
 0.19480295628E+01 0.19479827824E+01 0.19248808513E+01 0.18817973818E+01 0.18255090747E+01
 0.17646140292E+01 0.17057885024E+01 0.16551625006E+01 0.15833113862E+01 0.15844548377E+01
 0.15977290083E+01 0.16246398504E+01 0.16644286422E+01 0.17139988401E+01 0.17742873867E+01
 0.18421025847E+01 0.19157983167E+01 0.19926616532E+01 0.20694458501E+01 0.21429118823E+01
 0.22094468458E+01 0.22657321111E+01 0.23083967659E+01 0.23351531654E+01 0.23441979664E+01
 0.23351678034E+01 0.23084136840E+01 0.22656274741E+01 0.22093403875E+01 0.21427112320E+01
 0.20691655206E+01 0.19925097903E+01 0.19156904940E+01 0.18423346769E+01 0.17744429112E+01
 0.17140951491E+01 0.16635895786E+01 0.16248902805E+01 0.15978019989E+01 0.15840674247E+01
 0.15835172185E+01 0.15954169384E+01 0.16183721580E+01 0.16494731597E+01 0.16848869966E+01
 0.17198609628E+01 0.17497300892E+01 0.17697791981E+01 0.17765928536E+01 0.17696972954E+01
 0.17499273209E+01 0.17206168982E+01 0.16858905450E+01 0.16497712176E+01 0.16180812054E+01
 0.15948107043E+01 0.15859766696E+01 0.15976884195E+01 0.16210784806E+01 0.16547937838E+01
 0.16983856080E+01 0.17528178961E+01 0.18147625507E+01 0.18836887413E+01 0.19569388399E+01
 0.20318251008E+01 0.21054229994E+01 0.21741593394E+01 0.22345776639E+01 0.22832318132E+01
 0.23174971000E+01 0.23351170557E+01 0.23351677999E+01 0.23174629149E+01 0.22831377782E+01
 0.22344159631E+01 0.21740198465E+01 0.21052964227E+01 0.20317174812E+01 0.19565671704E+01
 0.18836735978E+01 0.18150837683E+01 0.17527583419E+01 0.16986627751E+01 0.16546700216E+01
 0.16212888764E+01 0.15979969206E+01 0.15858239743E+01 0.15840674278E+01 0.15912649803E+01
 0.16061972909E+01 0.16256860048E+01 0.16472068420E+01 0.16670791503E+01 0.16823279900E+01
 0.16904262514E+01 0.16905945456E+01 0.16821202280E+01 0.16667653476E+01 0.16465846731E+01
 0.16249427681E+01 0.16059393892E+01 0.15915988631E+01 0.15844580825E+01 0.16061122120E+01
 0.16236871565E+01 0.16501986201E+01 0.16867726249E+01 0.17333257827E+01 0.17873800147E+01
 0.18496260571E+01 0.19171671011E+01 0.19880769509E+01 0.20594799694E+01 0.21279857544E+01
 0.21902940356E+01 0.22430433292E+01 0.22832782750E+01 0.23084008459E+01 0.23170111543E+01
 0.23084136774E+01 0.22831377751E+01 0.22429625521E+01 0.21901839777E+01 0.21278624335E+01
 0.20592517410E+01 0.19877153026E+01 0.19170770346E+01 0.18494169573E+01 0.17876194173E+01
 0.17330948937E+01 0.16867962766E+01 0.16501511757E+01 0.16235153577E+01 0.16058259576E+01
 0.15979969228E+01 0.15978020035E+01 0.16043804903E+01 0.16157471251E+01 0.16297985983E+01
 0.16441728992E+01 0.16564100473E+01 0.16647962609E+01 0.16678665463E+01 0.16648611129E+01
 0.16566907262E+01 0.16444521513E+01 0.16302814008E+01 0.16165033501E+01 0.16045342543E+01
 0.15977370979E+01 0.15976736054E+01 0.16336601028E+01 0.16519558797E+01 0.16798725591E+01
 0.17166526397E+01 0.17617644845E+01 0.18158682233E+01 0.18758609297E+01 0.19406554850E+01
 0.20075202386E+01 0.20734592378E+01 0.21355388475E+01 0.21902645716E+01 0.22345791881E+01
 0.22656729595E+01 0.22818193281E+01 0.22818114217E+01 0.22656274648E+01 0.22344159572E+01
 0.21901839749E+01 0.21355109081E+01 0.20734622771E+01 0.20072283136E+01 0.19405418866E+01
 0.18755017183E+01 0.18158737011E+01 0.17627208301E+01 0.17166213273E+01 0.16792256916E+01
 0.16521642898E+01 0.16337369954E+01 0.16235153595E+01 0.16212888794E+01 0.16248902849E+01
 0.16334488919E+01 0.16448486549E+01 0.16570597438E+01 0.16683966314E+01 0.16770756153E+01
 0.16816620392E+01 0.16814787376E+01 0.16769420977E+01 0.16681859120E+01 0.16568436867E+01
 0.16443563476E+01 0.16326909972E+01 0.16246810271E+01 0.16210789615E+01 0.16237033257E+01
 0.16613688235E+01 0.16793068310E+01 0.17056400378E+01 0.17409862197E+01 0.17851750441E+01
 0.18356491682E+01 0.18924977832E+01 0.19527530670E+01 0.20141208330E+01 0.20736389755E+01
 0.21279960754E+01 0.21741736191E+01 0.22094684257E+01 0.22316201457E+01 0.22391953925E+01
 0.22315953527E+01 0.22093403760E+01 0.21740198384E+01 0.21278624285E+01 0.20734622748E+01
 0.20138859119E+01 0.19525991542E+01 0.18918720688E+01 0.18357034107E+01 0.17851493371E+01
 0.17410486275E+01 0.17053169602E+01 0.16791689540E+01 0.16620294657E+01 0.16521642908E+01
 0.16501511784E+01 0.16546700244E+01 0.16635895815E+01 0.16760733759E+01 0.16893953291E+01
 0.17024320182E+01 0.17127680524E+01 0.17196464782E+01 0.17221181139E+01 0.17198882251E+01
 0.17128808765E+01 0.17024743853E+01 0.16896846272E+01 0.16763684897E+01 0.16644312204E+01
 0.16547482696E+01 0.16501941342E+01 0.16519408810E+01 0.16862900607E+01 0.17014980473E+01
 0.17256852980E+01 0.17583345747E+01 0.17983144476E+01 0.18459653460E+01 0.18979096200E+01
 0.19527304563E+01 0.20074853842E+01 0.20593133369E+01 0.21053976137E+01 0.21428955813E+01
 0.21693108259E+01 0.21829590178E+01 0.21830203209E+01 0.21692426093E+01 0.21427112190E+01
 0.21052964130E+01 0.20592517343E+01 0.20072283095E+01 0.19525991524E+01 0.18974557018E+01
 0.18459422194E+01 0.17990250363E+01 0.17582979287E+01 0.17256355053E+01 0.17015673015E+01
 0.16863985383E+01 0.16791689550E+01 0.16792256942E+01 0.16867962794E+01 0.16986627765E+01
 0.17140951488E+01 0.17307447992E+01 0.17469266207E+01 0.17609567971E+01 0.17712881481E+01
 0.17766720166E+01 0.17765495259E+01 0.17710737313E+01 0.17609281944E+01 0.17469443263E+01
 0.17307013668E+01 0.17139909342E+01 0.16983598038E+01 0.16868462884E+01 0.16798478503E+01
 0.16793491818E+01 0.17051361867E+01 0.17174448471E+01 0.17381149238E+01 0.17671404921E+01
 0.18040159071E+01 0.18459626580E+01 0.18924968149E+01 0.19407101112E+01 0.19880947877E+01
 0.20320186610E+01 0.20694513534E+01 0.20981883888E+01 0.21162252586E+01 0.21224862759E+01
 0.21162988855E+01 0.20981128742E+01 0.20691655067E+01 0.20317174704E+01 0.19877152947E+01
 0.19405418813E+01 0.18918720656E+01 0.18459422180E+01 0.18037094472E+01 0.17672296681E+01
 0.17383998953E+01 0.17173864447E+01 0.17050536285E+01 0.17015673031E+01 0.17053169626E+01
 0.17166213303E+01 0.17330948947E+01 0.17527583406E+01 0.17744429055E+01 0.17954331602E+01
 0.18142933581E+01 0.18290775482E+01 0.18386925734E+01 0.18419642081E+01 0.18387740398E+01
 0.18293394800E+01 0.18143545683E+01 0.17954911885E+01 0.17743338500E+01 0.17528342061E+01
 0.17333288857E+01 0.17166011007E+01 0.17056411133E+01 0.17014532505E+01 0.17173666152E+01
 0.17255731867E+01 0.17424731377E+01 0.17671875238E+01 0.17983383552E+01 0.18356319897E+01
 0.18758492289E+01 0.19171110866E+01 0.19569065821E+01 0.19924530767E+01 0.20217572539E+01
 0.20424955031E+01 0.20532820243E+01 0.20532294717E+01 0.20426552178E+01 0.20216908754E+01
 0.19925097760E+01 0.19565671591E+01 0.19170770260E+01 0.18755017122E+01 0.18357034065E+01
 0.17990250338E+01 0.17672296670E+01 0.17427393346E+01 0.17255209423E+01 0.17168526050E+01
 0.17173864466E+01 0.17256355079E+01 0.17410486307E+01 0.17627208317E+01 0.17876194157E+01
 0.18150837623E+01 0.18423346639E+01 0.18673813497E+01 0.18882341883E+01 0.19029411381E+01
 0.19108089565E+01 0.19108082447E+01 0.19029590807E+01 0.18879173565E+01 0.18671793821E+01
 0.18420350903E+01 0.18147345603E+01 0.17873603978E+01 0.17617620894E+01 0.17410369749E+01
 0.17257081563E+01 0.17174655913E+01 0.17211676989E+01 0.17255709460E+01 0.17380968369E+01
 0.17582808867E+01 0.17851538009E+01 0.18159069573E+01 0.18496242068E+01 0.18837634061E+01
 0.19158313656E+01 0.19438642723E+01 0.19652976525E+01 0.19789429968E+01 0.19834877092E+01
 0.19789856384E+01 0.19653324240E+01 0.19438348541E+01 0.19156904798E+01 0.18836735863E+01
 0.18494169483E+01 0.18158736943E+01 0.17851493322E+01 0.17582979253E+01 0.17383998932E+01
 0.17255209413E+01 0.17209032069E+01 0.17255209444E+01 0.17383998982E+01 0.17582979319E+01
 0.17851493393E+01 0.18158736994E+01 0.18494169512E+01 0.18836735840E+01 0.19156904715E+01
 0.19438348378E+01 0.19653323989E+01 0.19789856039E+01 0.19834876662E+01 0.19789429456E+01
 0.19652975951E+01 0.19438642099E+01 0.19158313013E+01 0.18837633416E+01 0.18496241462E+01
 0.18159069015E+01 0.17851537543E+01 0.17582808510E+01 0.17380968115E+01 0.17255709333E+01
 0.17173666072E+01 0.17174655962E+01 0.17257081727E+01 0.17410370025E+01 0.17617621247E+01
 0.17873604382E+01 0.18147346057E+01 0.18420351366E+01 0.18671794286E+01 0.18879173998E+01
 0.19029591198E+01 0.19108082774E+01 0.19108089820E+01 0.19029411562E+01 0.18882341994E+01
 0.18673813538E+01 0.18423346629E+01 0.18150837569E+01 0.17876194081E+01 0.17627208229E+01
 0.17410486220E+01 0.17256355012E+01 0.17173864418E+01 0.17168526032E+01 0.17255209435E+01
 0.17427393377E+01 0.17672296714E+01 0.17990250390E+01 0.18357034092E+01 0.18755017124E+01
 0.19170770205E+01 0.19565671465E+01 0.19925097547E+01 0.20216908440E+01 0.20426551755E+01
 0.20532294184E+01 0.20532819613E+01 0.20424954317E+01 0.20217571761E+01 0.19924529957E+01
 0.19569065002E+01 0.19171110075E+01 0.18758491541E+01 0.18356319233E+01 0.17983382973E+01
 0.17671874763E+01 0.17424731038E+01 0.17255731653E+01 0.17051361712E+01 0.17014532465E+01
 0.17056411200E+01 0.17166011156E+01 0.17333289084E+01 0.17528342350E+01 0.17743338807E+01
 0.17954912204E+01 0.18143545978E+01 0.18293395064E+01 0.18387740609E+01 0.18419642240E+01
 0.18386925834E+01 0.18290775527E+01 0.18142933574E+01 0.17954331553E+01 0.17744428974E+01
 0.17527583304E+01 0.17330948842E+01 0.17166213197E+01 0.17053169541E+01 0.17015672968E+01
 0.17050536250E+01 0.17173864440E+01 0.17383998964E+01 0.17672296704E+01 0.18037094503E+01
 0.18459422184E+01 0.18918720630E+01 0.19405418727E+01 0.19877152778E+01 0.20317174440E+01
 0.20691654687E+01 0.20981128244E+01 0.21162988228E+01 0.21224862013E+01 0.21162251737E+01
 0.20981882957E+01 0.20694512550E+01 0.20320185598E+01 0.19880946877E+01 0.19407100146E+01
 0.18924967261E+01 0.18459625777E+01 0.18040158390E+01 0.17671404378E+01 0.17381148813E+01
 0.17174448187E+01 0.16862900369E+01 0.16793491698E+01 0.16798478479E+01 0.16868462944E+01
 0.16983598144E+01 0.17139909465E+01 0.17307013811E+01 0.17469443393E+01 0.17609282058E+01
 0.17710737395E+01 0.17765495306E+01 0.17766720171E+01 0.17712881442E+01 0.17609567897E+01
 0.17469266104E+01 0.17307447871E+01 0.17140951355E+01 0.16986627635E+01 0.16867962671E+01
 0.16792256838E+01 0.16791689475E+01 0.16863985331E+01 0.17015672987E+01 0.17256355043E+01
 0.17582979292E+01 0.17990250372E+01 0.18459422174E+01 0.18974556964E+01 0.19525991407E+01
 0.20072282887E+01 0.20592517031E+01 0.21052963690E+01 0.21427111616E+01 0.21692425378E+01
 0.21830202354E+01 0.21829589197E+01 0.21693107177E+01 0.21428954657E+01 0.21053974940E+01
 0.20593132173E+01 0.20074852675E+01 0.19527303468E+01 0.18979095188E+01 0.18459652571E+01
 0.17983143706E+01 0.17583345102E+01 0.17256852489E+01 0.17014980110E+01 0.16613687930E+01
 0.16519408596E+01 0.16501941203E+01 0.16547482605E+01 0.16644312155E+01 0.16763684877E+01
 0.16896846241E+01 0.17024743812E+01 0.17128808694E+01 0.17198882150E+01 0.17221181006E+01
 0.17196464627E+01 0.17127680354E+01 0.17024320001E+01 0.16893953108E+01 0.16760733581E+01
 0.16635895649E+01 0.16546700099E+01 0.16501511660E+01 0.16521642814E+01 0.16620294586E+01
 0.16791689490E+01 0.17053169573E+01 0.17410486263E+01 0.17851493357E+01 0.18357034063E+01
 0.18918720609E+01 0.19525991396E+01 0.20138858876E+01 0.20734622394E+01 0.21278623791E+01
 0.21740197742E+01 0.22093402963E+01 0.22315952574E+01 0.22391952824E+01 0.22316200232E+01
 0.22094682939E+01 0.21741734813E+01 0.21279959359E+01 0.20736388374E+01 0.20141207010E+01
 0.19527529429E+01 0.18924976714E+01 0.18356490683E+01 0.17851749593E+01 0.17409861507E+01
 0.17056399814E+01 0.16793067885E+01 0.16336600623E+01 0.16237032938E+01 0.16210789354E+01
 0.16246810045E+01 0.16326909744E+01 0.16443563220E+01 0.16568436596E+01 0.16681858816E+01
 0.16769420658E+01 0.16814787042E+01 0.16816620059E+01 0.16770755824E+01 0.16683966001E+01
 0.16570597149E+01 0.16448486292E+01 0.16334488694E+01 0.16248902660E+01 0.16212888639E+01
 0.16235153471E+01 0.16337369861E+01 0.16521642829E+01 0.16792256873E+01 0.17166213242E+01
 0.17627208262E+01 0.18158736946E+01 0.18755017084E+01 0.19405418694E+01 0.20072282863E+01
 0.20734622382E+01 0.21355108543E+01 0.21901839052E+01 0.22344158703E+01 0.22656273608E+01
 0.22818113012E+01 0.22818191927E+01 0.22656728128E+01 0.22345790334E+01 0.21902644133E+01
 0.21355386895E+01 0.20734590851E+01 0.20075200937E+01 0.19406553523E+01 0.18758608092E+01
 0.18158681187E+01 0.17617643941E+01 0.17166525626E+01 0.16798724977E+01 0.16519558295E+01
 0.16061121617E+01 0.15976735582E+01 0.15977370509E+01 0.16045342051E+01 0.16165032984E+01
 0.16302813468E+01 0.16444520924E+01 0.16566906649E+01 0.16648610496E+01 0.16678664839E+01
 0.16647962012E+01 0.16564099930E+01 0.16441728516E+01 0.16297985577E+01 0.16157470917E+01
 0.16043804634E+01 0.15978019825E+01 0.15979969067E+01 0.16058259458E+01 0.16235153494E+01
 0.16501511697E+01 0.16867962715E+01 0.17330948875E+01 0.17876194091E+01 0.18494169454E+01
 0.19170770152E+01 0.19877152732E+01 0.20592516994E+01 0.21278623765E+01 0.21901839038E+01
 0.22429624599E+01 0.22831376642E+01 0.23084135484E+01 0.23170110083E+01 0.23084006865E+01
 0.22832781054E+01 0.22430431541E+01 0.21902938593E+01 0.21279855817E+01 0.20594798035E+01
 0.19880767964E+01 0.19171669589E+01 0.18496259310E+01 0.17873799030E+01 0.17333256871E+01
 0.16867725452E+01 0.16501985507E+01 0.16236870981E+01 0.15859765987E+01 0.15844580109E+01
 0.15915987872E+01 0.16059393060E+01 0.16249426748E+01 0.16465845690E+01 0.16667652379E+01
 0.16821201151E+01 0.16905944354E+01 0.16904261479E+01 0.16823278972E+01 0.16670790699E+01
 0.16472067750E+01 0.16256859513E+01 0.16061972496E+01 0.15912649496E+01 0.15840674056E+01
 0.15858239586E+01 0.15979969095E+01 0.16212888681E+01 0.16546700144E+01 0.16986627675E+01
 0.17527583323E+01 0.18150837547E+01 0.18836735768E+01 0.19565671399E+01 0.20317174381E+01
 0.21052963639E+01 0.21740197702E+01 0.22344158676E+01 0.22831376628E+01 0.23174627799E+01
 0.23351676460E+01 0.23351168863E+01 0.23174969182E+01 0.22832316239E+01 0.22345774715E+01
 0.21741591490E+01 0.21054228151E+01 0.20318249274E+01 0.19569386790E+01 0.18836885964E+01
 0.18147624206E+01 0.17528177830E+01 0.16983855089E+01 0.16547936952E+01 0.16210784039E+01
 0.15976883478E+01 0.15833112869E+01 0.15948105913E+01 0.16180810748E+01 0.16497710688E+01
 0.16858903811E+01 0.17206167241E+01 0.17499271394E+01 0.17696971153E+01 0.17765926812E+01
 0.17697790407E+01 0.17497299518E+01 0.17198608494E+01 0.16848869072E+01 0.16494730921E+01
 0.16183721091E+01 0.15954169042E+01 0.15835171954E+01 0.15840674091E+01 0.15978019880E+01
 0.16248902719E+01 0.16635895703E+01 0.17140951386E+01 0.17744428961E+01 0.18423346550E+01
 0.19156904632E+01 0.19925097469E+01 0.20691654615E+01 0.21427111553E+01 0.22093402910E+01
 0.22656273568E+01 0.23084135457E+01 0.23351676447E+01 0.23441977903E+01 0.23351529749E+01
 0.23083965658E+01 0.22657319058E+01 0.22094466409E+01 0.21429116821E+01 0.20694456593E+01
 0.19926614742E+01 0.19157981531E+01 0.18421024359E+01 0.17742872551E+01 0.17139987217E+01
 0.16644285365E+01 0.16246397554E+01 0.15977289144E+01 0.15844547435E+01 0.16168349629E+01
 0.16551623167E+01 0.17057882905E+01 0.17646137872E+01 0.18255088046E+01 0.18817970911E+01
 0.19248805557E+01 0.19479824952E+01 0.19480292991E+01 0.19246988165E+01 0.18824369380E+01
 0.18268676039E+01 0.17652494264E+01 0.17054194128E+01 0.16543990295E+01 0.16165853193E+01
 0.15954169100E+01 0.15912649580E+01 0.16043804724E+01 0.16334488772E+01 0.16760733633E+01
 0.17307447878E+01 0.17954331497E+01 0.18673813397E+01 0.19438348284E+01 0.20216908350E+01
 0.20981128161E+01 0.21692425304E+01 0.22315952511E+01 0.22818112960E+01 0.23170110045E+01
 0.23351168839E+01 0.23351529738E+01 0.23169742859E+01 0.22818180428E+01 0.22315949954E+01
 0.21693365824E+01 0.20981525347E+01 0.20217629944E+01 0.19436410104E+01 0.18672465502E+01
 0.17954338179E+01 0.17307707658E+01 0.16763353883E+01 0.16326915053E+01 0.16045867988E+01