unknown system                          
   1.00000000000000     
    -0.000087    2.006756    2.006756
     2.006756   -0.000087    2.006756
     2.006756    2.006756   -0.000087
   Li   F 
     1     1
Direct
  0.000000  0.000000  1.000000
  0.500000  0.500000  0.500000
 
   48   48   48
  176.25      170.81      155.43      132.61      105.79      78.597      54.033      34.079      19.536      10.169    
  5.0026      2.6809      1.8013      1.3790      1.1645      1.0668      1.0352      1.0405      1.0644      1.0950    
  1.1245      1.1485      1.1652      1.1748      1.1779      1.1748      1.1652      1.1485      1.1245      1.0950    
  1.0644      1.0405      1.0352      1.0668      1.1645      1.3790      1.8013      2.6809      5.0026      10.169    
  19.536      34.079      54.033      78.597      105.79      132.61      155.43      170.81      170.81      160.41    
  141.34      116.61      89.783      64.173      42.263      25.407      13.848      6.9425      3.4975      2.1164    
  1.5452      1.2487      1.1048      1.0472      1.0383      1.0558      1.0851      1.1166      1.1442      1.1650    
  1.1784      1.1847      1.1847      1.1784      1.1650      1.1442      1.1166      1.0852      1.0558      1.0383    
  1.0472      1.1048      1.2487      1.5452      2.1164      3.4975      6.9426      13.848      25.407      42.263    
  64.173      89.783      116.61      141.34      160.41      170.81      155.43      141.34      120.43      95.902    
  71.054      48.667      30.552      17.431      9.0605      4.5132      2.5093      1.7371      1.3520      1.1577    
  1.0718      1.0476      1.0579      1.0855      1.1190      1.1507      1.1764      1.1944      1.2047      1.2081    
  1.2047      1.1944      1.1764      1.1507      1.1190      1.0855      1.0579      1.0476      1.0718      1.1578    
  1.3520      1.7371      2.5093      4.5132      9.0606      17.431      30.552      48.667      71.055      95.902    
  120.43      141.34      155.43      160.41      132.61      116.61      95.902      73.492      52.188      34.079    
  20.290      10.986      5.5680      2.9634      1.9373      1.4656      1.2205      1.1056      1.0655      1.0683    
  1.0941      1.1296      1.1659      1.1973      1.2210      1.2364      1.2438      1.2438      1.2364      1.2210    
  1.1973      1.1659      1.1296      1.0941      1.0683      1.0655      1.1056      1.2205      1.4656      1.9373    
  2.9635      5.5681      10.987      20.290      34.079      52.188      73.493      95.902      116.61      132.61    
  141.34      141.34      105.79      89.783      71.054      52.188      35.334      21.879      12.336      6.4462    
  3.4019      2.1262      1.5768      1.2860      1.1440      1.0888      1.0844      1.1084      1.1461      1.1874    
  1.2252      1.2557      1.2773      1.2899      1.2940      1.2899      1.2773      1.2557      1.2252      1.1874    
  1.1461      1.1084      1.0844      1.0889      1.1440      1.2860      1.5769      2.1263      3.4020      6.4463    
  12.336      21.879      35.334      52.188      71.055      89.783      105.79      116.61      120.43      116.61    
  78.597      64.173      48.667      34.079      21.879      12.822      6.9458      3.7224      2.2816      1.6712    
  1.3458      1.1818      1.1139      1.1032      1.1258      1.1659      1.2123      1.2572      1.2955      1.3245    
  1.3436      1.3530      1.3530      1.3437      1.3246      1.2955      1.2572      1.2123      1.1659      1.1258    
  1.1032      1.1139      1.1819      1.3459      1.6712      2.2817      3.7225      6.9459      12.822      21.879    
  34.079      48.668      64.174      78.597      89.783      95.902      95.902      89.783      54.033      42.263    
  30.552      20.290      12.336      6.9458      3.8401      2.3710      1.7346      1.3917      1.2138      1.1369    
  1.1217      1.1436      1.1863      1.2381      1.2903      1.3370      1.3747      1.4017      1.4177      1.4230    
  1.4177      1.4017      1.3747      1.3371      1.2903      1.2381      1.1863      1.1436      1.1217      1.1370    
  1.2138      1.3918      1.7347      2.3710      3.8402      6.9459      12.336      20.290      30.552      42.263    
  54.033      64.174      71.055      73.493      71.055      64.173      34.079      25.407      17.431      10.986    
  6.4462      3.7224      2.3710      1.7570      1.4166      1.2352      1.1545      1.1373      1.1595      1.2051    
  1.2621      1.3217      1.3772      1.4242      1.4603      1.4845      1.4965      1.4965      1.4845      1.4603    
  1.4243      1.3772      1.3217      1.2621      1.2051      1.1595      1.1373      1.1546      1.2352      1.4167    
  1.7571      2.3711      3.7225      6.4463      10.987      17.431      25.408      34.079      42.263      48.668    
  52.188      52.188      48.667      42.263      19.536      13.848      9.0605      5.5680      3.4019      2.2816    
  1.7346      1.4166      1.2427      1.1640      1.1476      1.1713      1.2200      1.2822      1.3489      1.4131    
  1.4699      1.5159      1.5495      1.5698      1.5765      1.5698      1.5495      1.5159      1.4699      1.4131    
  1.3489      1.2822      1.2200      1.1714      1.1476      1.1641      1.2428      1.4167      1.7348      2.2817    
  3.4020      5.5682      9.0607      13.848      19.537      25.408      30.552      34.079      35.334      34.079    
  30.552      25.407      10.169      6.9425      4.5132      2.9634      2.1262      1.6712      1.3917      1.2352    
  1.1640      1.1512      1.1776      1.2297      1.2966      1.3698      1.4422      1.5086      1.5650      1.6089    
  1.6389      1.6540      1.6540      1.6389      1.6089      1.5650      1.5086      1.4423      1.3698      1.2966    
  1.2297      1.1777      1.1512      1.1641      1.2353      1.3918      1.6713      2.1264      2.9636      4.5133    
  6.9427      10.169      13.848      17.431      20.290      21.879      21.879      20.290      17.431      13.848    
  5.0026      3.4975      2.5093      1.9373      1.5768      1.3458      1.2138      1.1545      1.1476      1.1776    
  1.2330      1.3041      1.3829      1.4627      1.5381      1.6046      1.6593      1.6999      1.7248      1.7332    
  1.7248      1.6999      1.6593      1.6047      1.5381      1.4627      1.3829      1.3041      1.2330      1.1777    
  1.1477      1.1546      1.2140      1.3460      1.5770      1.9374      2.5094      3.4976      5.0027      6.9427    
  9.0607      10.987      12.336      12.822      12.336      10.987      9.0606      6.9426      2.6809      2.1164    
  1.7371      1.4656      1.2860      1.1818      1.1369      1.1373      1.1713      1.2297      1.3041      1.3874    
  1.4733      1.5564      1.6324      1.6976      1.7492      1.7850      1.8033      1.8033      1.7850      1.7493    
  1.6977      1.6324      1.5565      1.4733      1.3874      1.3041      1.2297      1.1714      1.1374      1.1371    
  1.1820      1.2862      1.4658      1.7373      2.1166      2.6810      3.4976      4.5133      5.5682      6.4463    
  6.9459      6.9459      6.4463      5.5681      4.5132      3.4975      1.8013      1.5452      1.3520      1.2205    
  1.1440      1.1139      1.1217      1.1595      1.2200      1.2966      1.3829      1.4733      1.5627      1.6467    
  1.7216      1.7840      1.8310      1.8602      1.8702      1.8602      1.8310      1.7840      1.7216      1.6467    
  1.5627      1.4733      1.3829      1.2966      1.2201      1.1596      1.1218      1.1141      1.1442      1.2207    
  1.3523      1.5454      1.8015      2.1166      2.5094      2.9636      3.4020      3.7225      3.8402      3.7225    
  3.4020      2.9635      2.5093      2.1164      1.3790      1.2487      1.1577      1.1056      1.0888      1.1032    
  1.1436      1.2051      1.2822      1.3698      1.4627      1.5564      1.6467      1.7297      1.8019      1.8598    
  1.9005      1.9214      1.9214      1.9005      1.8598      1.8019      1.7297      1.6467      1.5565      1.4628    
  1.3698      1.2822      1.2051      1.1437      1.1033      1.0890      1.1058      1.1580      1.2489      1.3793    
  1.5454      1.7373      1.9374      2.1264      2.2817      2.3711      2.3710      2.2817      2.1263      1.9373    
  1.7371      1.5452      1.1645      1.1048      1.0718      1.0655      1.0844      1.1258      1.1863      1.2621    
  1.3489      1.4422      1.5381      1.6324      1.7216      1.8019      1.8697      1.9213      1.9537      1.9648    
  1.9537      1.9213      1.8697      1.8019      1.7216      1.6324      1.5381      1.4423      1.3489      1.2622    
  1.1864      1.1259      1.0845      1.0657      1.0720      1.1050      1.1647      1.2489      1.3523      1.4658    
  1.5770      1.6713      1.7348      1.7571      1.7347      1.6712      1.5769      1.4656      1.3520      1.2487    
  1.0668      1.0472      1.0476      1.0683      1.1084      1.1659      1.2381      1.3217      1.4131      1.5086    
  1.6046      1.6976      1.7840      1.8598      1.9213      1.9647      1.9873      1.9873      1.9647      1.9213    
  1.8598      1.7840      1.6977      1.6047      1.5086      1.4131      1.3217      1.2381      1.1659      1.1085    
  1.0684      1.0477      1.0474      1.0670      1.1050      1.1580      1.2207      1.2862      1.3460      1.3918    
  1.4167      1.4167      1.3918      1.3459      1.2860      1.2205      1.1578      1.1048      1.0352      1.0383    
  1.0579      1.0941      1.1461      1.2123      1.2903      1.3772      1.4699      1.5650      1.6593      1.7492    
  1.8310      1.9005      1.9537      1.9873      1.9987      1.9873      1.9537      1.9005      1.8310      1.7493    
  1.6593      1.5650      1.4699      1.3772      1.2904      1.2124      1.1462      1.0941      1.0580      1.0385    
  1.0354      1.0474      1.0720      1.1058      1.1442      1.1820      1.2140      1.2353      1.2428      1.2352    
  1.2138      1.1819      1.1440      1.1056      1.0718      1.0472      1.0405      1.0558      1.0855      1.1296    
  1.1874      1.2572      1.3370      1.4242      1.5159      1.6089      1.6999      1.7850      1.8602      1.9214    
  1.9648      1.9873      1.9873      1.9648      1.9214      1.8603      1.7850      1.6999      1.6090      1.5159    
  1.4243      1.3371      1.2573      1.1874      1.1297      1.0856      1.0559      1.0406      1.0385      1.0477    
  1.0657      1.0890      1.1141      1.1371      1.1546      1.1641      1.1641      1.1546      1.1370      1.1139    
  1.0889      1.0655      1.0476      1.0383      1.0644      1.0851      1.1190      1.1659      1.2252      1.2955    
  1.3747      1.4603      1.5495      1.6389      1.7248      1.8033      1.8702      1.9214      1.9537      1.9647    
  1.9537      1.9214      1.8702      1.8033      1.7248      1.6389      1.5495      1.4604      1.3747      1.2955    
  1.2252      1.1659      1.1190      1.0852      1.0645      1.0559      1.0580      1.0684      1.0845      1.1033    
  1.1218      1.1374      1.1477      1.1512      1.1476      1.1373      1.1217      1.1032      1.0844      1.0683    
  1.0579      1.0558      1.0950      1.1166      1.1507      1.1973      1.2557      1.3245      1.4017      1.4845    
  1.5698      1.6540      1.7332      1.8033      1.8602      1.9005      1.9213      1.9213      1.9005      1.8603    
  1.8033      1.7332      1.6540      1.5698      1.4845      1.4017      1.3246      1.2558      1.1973      1.1507    
  1.1166      1.0951      1.0852      1.0856      1.0941      1.1085      1.1259      1.1437      1.1596      1.1714    
  1.1777      1.1777      1.1714      1.1595      1.1436      1.1258      1.1084      1.0941      1.0855      1.0852    
  1.1245      1.1442      1.1764      1.2210      1.2773      1.3436      1.4177      1.4965      1.5765      1.6540    
  1.7248      1.7850      1.8310      1.8598      1.8697      1.8598      1.8310      1.7850      1.7248      1.6540    
  1.5766      1.4965      1.4177      1.3437      1.2773      1.2210      1.1764      1.1442      1.1245      1.1166    
  1.1190      1.1297      1.1462      1.1659      1.1864      1.2051      1.2201      1.2297      1.2330      1.2297    
  1.2200      1.2051      1.1863      1.1659      1.1461      1.1296      1.1190      1.1166      1.1485      1.1650    
  1.1944      1.2364      1.2899      1.3530      1.4230      1.4965      1.5698      1.6389      1.6999      1.7493    
  1.7840      1.8019      1.8019      1.7840      1.7493      1.6999      1.6389      1.5698      1.4965      1.4230    
  1.3531      1.2899      1.2364      1.1944      1.1650      1.1485      1.1442      1.1507      1.1659      1.1874    
  1.2124      1.2381      1.2622      1.2822      1.2966      1.3041      1.3041      1.2966      1.2822      1.2621    
  1.2381      1.2123      1.1874      1.1659      1.1507      1.1442      1.1652      1.1784      1.2047      1.2438    
  1.2940      1.3530      1.4177      1.4845      1.5495      1.6089      1.6593      1.6977      1.7216      1.7297    
  1.7216      1.6977      1.6593      1.6090      1.5495      1.4845      1.4177      1.3531      1.2941      1.2438    
  1.2048      1.1784      1.1653      1.1650      1.1764      1.1973      1.2252      1.2573      1.2904      1.3217    
  1.3489      1.3698      1.3829      1.3874      1.3829      1.3698      1.3489      1.3217      1.2903      1.2572    
  1.2252      1.1973      1.1764      1.1650      1.1748      1.1847      1.2081      1.2438      1.2899      1.3437    
  1.4017      1.4603      1.5159      1.5650      1.6047      1.6324      1.6467      1.6467      1.6324      1.6047    
  1.5650      1.5159      1.4604      1.4017      1.3437      1.2899      1.2438      1.2081      1.1848      1.1749    
  1.1784      1.1944      1.2210      1.2558      1.2955      1.3371      1.3772      1.4131      1.4423      1.4628    
  1.4733      1.4733      1.4627      1.4423      1.4131      1.3772      1.3371      1.2955      1.2557      1.2210    
  1.1944      1.1784      1.1779      1.1847      1.2047      1.2364      1.2773      1.3246      1.3747      1.4243    
  1.4699      1.5086      1.5381      1.5565      1.5627      1.5565      1.5381      1.5086      1.4699      1.4243    
  1.3747      1.3246      1.2773      1.2364      1.2048      1.1848      1.1779      1.1848      1.2048      1.2364    
  1.2773      1.3246      1.3747      1.4243      1.4699      1.5086      1.5381      1.5565      1.5627      1.5565    
  1.5381      1.5086      1.4699      1.4243      1.3747      1.3246      1.2773      1.2364      1.2047      1.1847    
  1.1748      1.1784      1.1944      1.2210      1.2557      1.2955      1.3371      1.3772      1.4131      1.4423    
  1.4627      1.4733      1.4733      1.4628      1.4423      1.4131      1.3772      1.3371      1.2955      1.2558    
  1.2210      1.1944      1.1784      1.1749      1.1848      1.2081      1.2438      1.2899      1.3437      1.4017    
  1.4603      1.5159      1.5650      1.6047      1.6324      1.6467      1.6467      1.6324      1.6047      1.5650    
  1.5159      1.4603      1.4017      1.3437      1.2899      1.2438      1.2081      1.1847      1.1652      1.1650    
  1.1764      1.1973      1.2252      1.2572      1.2903      1.3217      1.3489      1.3698      1.3829      1.3874    
  1.3829      1.3698      1.3489      1.3217      1.2904      1.2573      1.2252      1.1973      1.1764      1.1650    
  1.1653      1.1784      1.2048      1.2438      1.2941      1.3531      1.4177      1.4845      1.5495      1.6090    
  1.6593      1.6977      1.7216      1.7297      1.7216      1.6977      1.6593      1.6089      1.5495      1.4845    
  1.4177      1.3530      1.2940      1.2438      1.2047      1.1784      1.1485      1.1442      1.1507      1.1659    
  1.1874      1.2123      1.2381      1.2621      1.2822      1.2966      1.3041      1.3041      1.2966      1.2822    
  1.2622      1.2381      1.2124      1.1874      1.1659      1.1507      1.1442      1.1485      1.1650      1.1944    
  1.2364      1.2899      1.3531      1.4230      1.4965      1.5698      1.6389      1.6999      1.7493      1.7840    
  1.8019      1.8019      1.7840      1.7493      1.6999      1.6389      1.5698      1.4965      1.4230      1.3530    
  1.2899      1.2364      1.1944      1.1650      1.1245      1.1166      1.1190      1.1296      1.1461      1.1659    
  1.1863      1.2051      1.2200      1.2297      1.2330      1.2297      1.2201      1.2051      1.1864      1.1659    
  1.1462      1.1297      1.1190      1.1166      1.1245      1.1442      1.1764      1.2210      1.2773      1.3437    
  1.4177      1.4965      1.5766      1.6540      1.7248      1.7850      1.8310      1.8598      1.8697      1.8598    
  1.8310      1.7850      1.7248      1.6540      1.5765      1.4965      1.4177      1.3436      1.2773      1.2210    
  1.1764      1.1442      1.0950      1.0852      1.0855      1.0941      1.1084      1.1258      1.1436      1.1595    
  1.1714      1.1777      1.1777      1.1714      1.1596      1.1437      1.1259      1.1085      1.0941      1.0856    
  1.0852      1.0951      1.1166      1.1507      1.1973      1.2558      1.3246      1.4017      1.4845      1.5698    
  1.6540      1.7332      1.8033      1.8602      1.9005      1.9213      1.9213      1.9005      1.8602      1.8033    
  1.7332      1.6540      1.5698      1.4845      1.4017      1.3245      1.2557      1.1973      1.1507      1.1166    
  1.0644      1.0558      1.0579      1.0683      1.0844      1.1032      1.1217      1.1373      1.1476      1.1512    
  1.1477      1.1374      1.1218      1.1033      1.0845      1.0684      1.0580      1.0559      1.0645      1.0852    
  1.1190      1.1659      1.2252      1.2955      1.3747      1.4603      1.5495      1.6389      1.7248      1.8033    
  1.8702      1.9214      1.9537      1.9647      1.9537      1.9214      1.8702      1.8033      1.7248      1.6389    
  1.5495      1.4603      1.3747      1.2955      1.2252      1.1659      1.1190      1.0851      1.0405      1.0383    
  1.0476      1.0655      1.0889      1.1139      1.1370      1.1546      1.1641      1.1641      1.1546      1.1371    
  1.1141      1.0890      1.0657      1.0477      1.0385      1.0406      1.0559      1.0856      1.1297      1.1874    
  1.2573      1.3371      1.4243      1.5159      1.6090      1.6999      1.7850      1.8602      1.9214      1.9648    
  1.9873      1.9873      1.9648      1.9214      1.8602      1.7850      1.6999      1.6089      1.5159      1.4242    
  1.3370      1.2572      1.1874      1.1296      1.0855      1.0558      1.0352      1.0472      1.0718      1.1056    
  1.1440      1.1819      1.2138      1.2352      1.2428      1.2353      1.2140      1.1820      1.1442      1.1058    
  1.0720      1.0474      1.0354      1.0385      1.0580      1.0941      1.1462      1.2124      1.2904      1.3772    
  1.4699      1.5650      1.6593      1.7493      1.8310      1.9005      1.9537      1.9873      1.9987      1.9873    
  1.9537      1.9005      1.8310      1.7492      1.6593      1.5650      1.4699      1.3772      1.2903      1.2123    
  1.1461      1.0941      1.0579      1.0383      1.0668      1.1048      1.1578      1.2205      1.2860      1.3459    
  1.3918      1.4167      1.4167      1.3918      1.3460      1.2862      1.2207      1.1580      1.1050      1.0670    
  1.0474      1.0477      1.0684      1.1085      1.1659      1.2381      1.3217      1.4131      1.5086      1.6047    
  1.6977      1.7840      1.8598      1.9213      1.9647      1.9873      1.9873      1.9647      1.9213      1.8598    
  1.7840      1.6976      1.6046      1.5086      1.4131      1.3217      1.2381      1.1659      1.1084      1.0683    
  1.0476      1.0472      1.1645      1.2487      1.3520      1.4656      1.5769      1.6712      1.7347      1.7571    
  1.7348      1.6713      1.5770      1.4658      1.3523      1.2489      1.1647      1.1050      1.0720      1.0657    
  1.0845      1.1259      1.1864      1.2622      1.3489      1.4423      1.5381      1.6324      1.7216      1.8019    
  1.8697      1.9213      1.9537      1.9648      1.9537      1.9213      1.8696      1.8019      1.7216      1.6324    
  1.5381      1.4422      1.3489      1.2621      1.1863      1.1258      1.0844      1.0655      1.0718      1.1048    
  1.3790      1.5452      1.7371      1.9373      2.1263      2.2817      2.3710      2.3711      2.2817      2.1264    
  1.9374      1.7373      1.5454      1.3793      1.2489      1.1580      1.1058      1.0890      1.1033      1.1437    
  1.2051      1.2822      1.3698      1.4628      1.5565      1.6467      1.7297      1.8019      1.8598      1.9005    
  1.9214      1.9214      1.9005      1.8598      1.8019      1.7297      1.6467      1.5564      1.4627      1.3698    
  1.2822      1.2051      1.1436      1.1032      1.0888      1.1056      1.1577      1.2487      1.8013      2.1164    
  2.5093      2.9635      3.4020      3.7225      3.8402      3.7225      3.4020      2.9636      2.5094      2.1166    
  1.8015      1.5454      1.3523      1.2207      1.1442      1.1141      1.1218      1.1596      1.2201      1.2966    
  1.3829      1.4733      1.5627      1.6467      1.7216      1.7840      1.8310      1.8602      1.8702      1.8602    
  1.8310      1.7840      1.7216      1.6467      1.5627      1.4733      1.3829      1.2966      1.2200      1.1595    
  1.1217      1.1139      1.1440      1.2205      1.3520      1.5452      2.6809      3.4975      4.5132      5.5681    
  6.4463      6.9459      6.9459      6.4463      5.5682      4.5133      3.4976      2.6810      2.1166      1.7373    
  1.4658      1.2862      1.1820      1.1371      1.1374      1.1714      1.2297      1.3041      1.3874      1.4733    
  1.5565      1.6324      1.6977      1.7493      1.7850      1.8033      1.8033      1.7850      1.7492      1.6976    
  1.6324      1.5564      1.4733      1.3874      1.3041      1.2297      1.1713      1.1373      1.1369      1.1818    
  1.2860      1.4656      1.7371      2.1164      5.0026      6.9426      9.0606      10.987      12.336      12.822    
  12.336      10.987      9.0607      6.9427      5.0027      3.4976      2.5094      1.9374      1.5770      1.3460    
  1.2140      1.1546      1.1477      1.1777      1.2330      1.3041      1.3829      1.4627      1.5381      1.6047    
  1.6593      1.6999      1.7248      1.7332      1.7248      1.6999      1.6593      1.6046      1.5381      1.4627    
  1.3829      1.3041      1.2330      1.1776      1.1476      1.1545      1.2138      1.3458      1.5768      1.9373    
  2.5093      3.4975      10.169      13.848      17.431      20.290      21.879      21.879      20.290      17.431    
  13.848      10.169      6.9427      4.5133      2.9636      2.1264      1.6713      1.3918      1.2353      1.1641    
  1.1512      1.1777      1.2297      1.2966      1.3698      1.4423      1.5086      1.5650      1.6089      1.6389    
  1.6540      1.6540      1.6389      1.6089      1.5650      1.5086      1.4422      1.3698      1.2966      1.2297    
  1.1776      1.1512      1.1640      1.2352      1.3917      1.6712      2.1262      2.9634      4.5132      6.9425    
  19.536      25.407      30.552      34.079      35.334      34.079      30.552      25.408      19.537      13.848    
  9.0607      5.5682      3.4020      2.2817      1.7348      1.4167      1.2428      1.1641      1.1476      1.1714    
  1.2200      1.2822      1.3489      1.4131      1.4699      1.5159      1.5495      1.5698      1.5765      1.5698    
  1.5495      1.5159      1.4699      1.4131      1.3489      1.2822      1.2200      1.1713      1.1476      1.1640    
  1.2427      1.4166      1.7346      2.2816      3.4019      5.5680      9.0605      13.848      34.079      42.263    
  48.667      52.188      52.188      48.668      42.263      34.079      25.408      17.431      10.987      6.4463    
  3.7225      2.3711      1.7571      1.4167      1.2352      1.1546      1.1373      1.1595      1.2051      1.2621    
  1.3217      1.3772      1.4243      1.4603      1.4845      1.4965      1.4965      1.4845      1.4603      1.4242    
  1.3772      1.3217      1.2621      1.2051      1.1595      1.1373      1.1545      1.2352      1.4166      1.7570    
  2.3710      3.7224      6.4462      10.986      17.431      25.407      54.033      64.173      71.055      73.493    
  71.055      64.174      54.033      42.263      30.552      20.290      12.336      6.9459      3.8402      2.3710    
  1.7347      1.3918      1.2138      1.1370      1.1217      1.1436      1.1863      1.2381      1.2903      1.3371    
  1.3747      1.4017      1.4177      1.4230      1.4177      1.4017      1.3747      1.3370      1.2903      1.2381    
  1.1863      1.1436      1.1217      1.1369      1.2138      1.3917      1.7346      2.3710      3.8401      6.9458    
  12.336      20.290      30.552      42.263      78.597      89.783      95.902      95.902      89.783      78.597    
  64.174      48.668      34.079      21.879      12.822      6.9459      3.7225      2.2817      1.6712      1.3459    
  1.1819      1.1139      1.1032      1.1258      1.1659      1.2123      1.2572      1.2955      1.3246      1.3437    
  1.3530      1.3530      1.3436      1.3245      1.2955      1.2572      1.2123      1.1659      1.1258      1.1032    
  1.1139      1.1818      1.3458      1.6712      2.2816      3.7224      6.9458      12.822      21.879      34.079    
  48.667      64.173      105.79      116.61      120.43      116.61      105.79      89.783      71.055      52.188    
  35.334      21.879      12.336      6.4463      3.4020      2.1263      1.5769      1.2860      1.1440      1.0889    
  1.0844      1.1084      1.1461      1.1874      1.2252      1.2557      1.2773      1.2899      1.2940      1.2899    
  1.2773      1.2557      1.2252      1.1874      1.1461      1.1084      1.0844      1.0888      1.1440      1.2860    
  1.5768      2.1262      3.4019      6.4462      12.336      21.879      35.334      52.187      71.054      89.783    
  132.61      141.34      141.34      132.61      116.61      95.902      73.493      52.188      34.079      20.290    
  10.987      5.5681      2.9635      1.9373      1.4656      1.2205      1.1056      1.0655      1.0683      1.0941    
  1.1296      1.1659      1.1973      1.2210      1.2364      1.2438      1.2438      1.2364      1.2210      1.1973    
  1.1659      1.1296      1.0941      1.0683      1.0655      1.1056      1.2205      1.4656      1.9373      2.9634    
  5.5680      10.986      20.290      34.079      52.187      73.492      95.902      116.61      155.43      160.41    
  155.43      141.34      120.43      95.902      71.055      48.667      30.552      17.431      9.0606      4.5132    
  2.5093      1.7371      1.3520      1.1578      1.0718      1.0476      1.0579      1.0855      1.1190      1.1507    
  1.1764      1.1944      1.2047      1.2081      1.2047      1.1944      1.1764      1.1507      1.1190      1.0855    
  1.0579      1.0476      1.0718      1.1577      1.3520      1.7371      2.5093      4.5132      9.0605      17.431    
  30.552      48.667      71.054      95.902      120.43      141.34      170.81      170.81      160.41      141.34    
  116.61      89.783      64.173      42.263      25.407      13.848      6.9426      3.4975      2.1164      1.5452    
  1.2487      1.1048      1.0472      1.0383      1.0558      1.0852      1.1166      1.1442      1.1650      1.1784    
  1.1847      1.1847      1.1784      1.1650      1.1442      1.1166      1.0851      1.0558      1.0383      1.0472    
  1.1048      1.2487      1.5452      2.1164      3.4975      6.9425      13.848      25.407      42.263      64.173    
  89.783      116.61      141.34      160.41      170.81      160.41      141.34      116.61      89.783      64.173    
  42.263      25.407      13.848      6.9425      3.4975      2.1164      1.5452      1.2487      1.1048      1.0472    
  1.0383      1.0558      1.0851      1.1166      1.1442      1.1650      1.1784      1.1847      1.1847      1.1784    
  1.1650      1.1442      1.1166      1.0852      1.0558      1.0383      1.0472      1.1048      1.2487      1.5452    
  2.1164      3.4975      6.9426      13.848      25.407      42.263      64.173      89.783      116.61      141.34    
  160.41      170.81      160.41      145.90      124.37      99.100      73.490      50.397      31.685      18.103    
  9.4092      4.6612      2.5543      1.7468      1.3477      1.1448      1.0528      1.0239      1.0302      1.0544    
  1.0848      1.1140      1.1376      1.1541      1.1635      1.1666      1.1635      1.1541      1.1376      1.1140    
  1.0848      1.0544      1.0302      1.0239      1.0528      1.1448      1.3478      1.7468      2.5543      4.6612    
  9.4093      18.103      31.685      50.397      73.491      99.101      124.37      145.90      160.41      165.54    
  141.34      124.37      102.40      78.594      55.932      36.625      21.870      11.858      5.9732      3.1071    
  1.9723      1.4667      1.2014      1.0730      1.0229      1.0173      1.0358      1.0650      1.0958      1.1226    
  1.1428      1.1558      1.1620      1.1620      1.1558      1.1428      1.1226      1.0958      1.0650      1.0358    
  1.0173      1.0229      1.0730      1.2014      1.4667      1.9723      3.1071      5.9733      11.858      21.871    
  36.625      55.932      78.595      102.40      124.37      141.34      150.60      150.60      116.61      99.100    