   2   2   1   0
  0.8350800E+01  0.2869182E-09  0.2869182E-09  0.2869182E-09  0.5000000E-15
  1.000000000000000E-004
  CAR 
 unknown system                          
     46.92798780    -47.72688010  301     -1.26711577      1.00000000
    -47.727  0.0000E+00  0.0000E+00
    -47.411  0.0000E+00  0.0000E+00
    -47.096  0.0000E+00  0.0000E+00
    -46.780  0.0000E+00  0.0000E+00
    -46.465  0.0000E+00  0.0000E+00
    -46.149  0.0000E+00  0.0000E+00
    -45.834  0.0000E+00  0.0000E+00
    -45.518  0.0000E+00  0.0000E+00
    -45.203  0.0000E+00  0.0000E+00
    -44.887  0.0000E+00  0.0000E+00
    -44.572  0.0000E+00  0.0000E+00
    -44.256  0.0000E+00  0.0000E+00
    -43.941  0.0000E+00  0.0000E+00
    -43.625  0.0000E+00  0.0000E+00
    -43.310  0.2923E-01  0.1005E-01
    -42.994  0.0000E+00  0.1005E-01
    -42.679  0.0000E+00  0.1005E-01
    -42.363  0.0000E+00  0.1005E-01
    -42.048  0.0000E+00  0.1005E-01
    -41.732  0.0000E+00  0.1005E-01
    -41.417  0.0000E+00  0.1005E-01
    -41.101  0.0000E+00  0.1005E-01
    -40.786  0.0000E+00  0.1005E-01
    -40.470  0.0000E+00  0.1005E-01
    -40.154  0.0000E+00  0.1005E-01
    -39.839  0.0000E+00  0.1005E-01
    -39.523  0.0000E+00  0.1005E-01
    -39.208  0.0000E+00  0.1005E-01
    -38.892  0.0000E+00  0.1005E-01
    -38.577  0.0000E+00  0.1005E-01
    -38.261  0.0000E+00  0.1005E-01
    -37.946  0.0000E+00  0.1005E-01
    -37.630  0.0000E+00  0.1005E-01
    -37.315  0.0000E+00  0.1005E-01
    -36.999  0.0000E+00  0.1005E-01
    -36.684  0.0000E+00  0.1005E-01
    -36.368  0.0000E+00  0.1005E-01
    -36.053  0.0000E+00  0.1005E-01
    -35.737  0.0000E+00  0.1005E-01
    -35.422  0.0000E+00  0.1005E-01
    -35.106  0.0000E+00  0.1005E-01
    -34.791  0.0000E+00  0.1005E-01
    -34.475  0.0000E+00  0.1005E-01
    -34.160  0.0000E+00  0.1005E-01
    -33.844  0.0000E+00  0.1005E-01
    -33.529  0.0000E+00  0.1005E-01
    -33.213  0.0000E+00  0.1005E-01
    -32.898  0.0000E+00  0.1005E-01
    -32.582  0.0000E+00  0.1005E-01
    -32.267  0.0000E+00  0.1005E-01
    -31.951  0.0000E+00  0.1005E-01
    -31.636  0.0000E+00  0.1005E-01
    -31.320  0.0000E+00  0.1005E-01
    -31.005  0.0000E+00  0.1005E-01
    -30.689  0.0000E+00  0.1005E-01
    -30.373  0.0000E+00  0.1005E-01
    -30.058  0.0000E+00  0.1005E-01
    -29.742  0.0000E+00  0.1005E-01
    -29.427  0.0000E+00  0.1005E-01
    -29.111  0.0000E+00  0.1005E-01
    -28.796  0.0000E+00  0.1005E-01
    -28.480  0.0000E+00  0.1005E-01
    -28.165  0.0000E+00  0.1005E-01
    -27.849  0.0000E+00  0.1005E-01
    -27.534  0.0000E+00  0.1005E-01
    -27.218  0.0000E+00  0.1005E-01
    -26.903  0.0000E+00  0.1005E-01
    -26.587  0.0000E+00  0.1005E-01
    -26.272  0.0000E+00  0.1005E-01
    -25.956  0.0000E+00  0.1005E-01
    -25.641  0.0000E+00  0.1005E-01
    -25.325  0.0000E+00  0.1005E-01
    -25.010  0.0000E+00  0.1005E-01
    -24.694  0.0000E+00  0.1005E-01
    -24.379  0.0000E+00  0.1005E-01
    -24.063  0.0000E+00  0.1005E-01
    -23.748  0.0000E+00  0.1005E-01
    -23.432  0.0000E+00  0.1005E-01
    -23.117  0.0000E+00  0.1005E-01
    -22.801  0.0000E+00  0.1005E-01
    -22.486  0.8359E-03  0.1038E-01
    -22.170  0.4501E-02  0.1368E-01
    -21.855  0.2001E-02  0.2010E-01
    -21.539  0.0000E+00  0.2010E-01
    -21.224  0.0000E+00  0.2010E-01
    -20.908  0.0000E+00  0.2010E-01
    -20.592  0.0000E+00  0.2010E-01
    -20.277  0.0000E+00  0.2010E-01
    -19.961  0.0000E+00  0.2010E-01
    -19.646  0.0000E+00  0.2010E-01
    -19.330  0.0000E+00  0.2010E-01
    -19.015  0.0000E+00  0.2010E-01
    -18.699  0.0000E+00  0.2010E-01
    -18.384  0.0000E+00  0.2010E-01
    -18.068  0.0000E+00  0.2010E-01
    -17.753  0.0000E+00  0.2010E-01
    -17.437  0.0000E+00  0.2010E-01
    -17.122  0.0000E+00  0.2010E-01
    -16.806  0.0000E+00  0.2010E-01
    -16.491  0.0000E+00  0.2010E-01
    -16.175  0.0000E+00  0.2010E-01
    -15.860  0.0000E+00  0.2010E-01
    -15.544  0.0000E+00  0.2010E-01
    -15.229  0.0000E+00  0.2010E-01
    -14.913  0.0000E+00  0.2010E-01
    -14.598  0.0000E+00  0.2010E-01
    -14.282  0.0000E+00  0.2010E-01
    -13.967  0.0000E+00  0.2010E-01
    -13.651  0.0000E+00  0.2010E-01
    -13.336  0.0000E+00  0.2010E-01
    -13.020  0.0000E+00  0.2010E-01
    -12.705  0.0000E+00  0.2010E-01
    -12.389  0.0000E+00  0.2010E-01
    -12.074  0.0000E+00  0.2010E-01
    -11.758  0.0000E+00  0.2010E-01
    -11.443  0.0000E+00  0.2010E-01
    -11.127  0.0000E+00  0.2010E-01
    -10.811  0.0000E+00  0.2010E-01
    -10.496  0.0000E+00  0.2010E-01
    -10.180  0.0000E+00  0.2010E-01
     -9.865  0.0000E+00  0.2010E-01
     -9.549  0.0000E+00  0.2010E-01
     -9.234  0.0000E+00  0.2010E-01
     -8.918  0.0000E+00  0.2010E-01
     -8.603  0.0000E+00  0.2010E-01
     -8.287  0.0000E+00  0.2010E-01
     -7.972  0.0000E+00  0.2010E-01
     -7.656  0.0000E+00  0.2010E-01
     -7.341  0.0000E+00  0.2010E-01
     -7.025  0.0000E+00  0.2010E-01
     -6.710  0.0000E+00  0.2010E-01
     -6.394  0.0000E+00  0.2010E-01
     -6.079  0.0000E+00  0.2010E-01
     -5.763  0.0000E+00  0.2010E-01
     -5.448  0.0000E+00  0.2010E-01
     -5.132  0.0000E+00  0.2010E-01
     -4.817  0.0000E+00  0.2010E-01
     -4.501  0.2610E-03  0.2018E-01
     -4.186  0.1214E-04  0.2063E-01
     -3.870  0.3453E-02  0.2282E-01
     -3.555  0.2088E-02  0.2660E-01
     -3.239  0.2586E-02  0.2898E-01
     -2.924  0.8699E-03  0.3105E-01
     -2.608  0.2090E-02  0.3361E-01
     -2.293  0.3508E-02  0.3678E-01
     -1.977  0.3881E-02  0.4226E-01
     -1.662  0.3621E-02  0.4769E-01
     -1.346  0.0000E+00  0.5025E-01
     -1.030  0.0000E+00  0.5025E-01
     -0.715  0.0000E+00  0.5025E-01
     -0.399  0.0000E+00  0.5025E-01
     -0.084  0.0000E+00  0.5025E-01
      0.232  0.0000E+00  0.5025E-01
      0.547  0.0000E+00  0.5025E-01
      0.863  0.0000E+00  0.5025E-01
      1.178  0.0000E+00  0.5025E-01
      1.494  0.0000E+00  0.5025E-01
      1.809  0.0000E+00  0.5025E-01
      2.125  0.0000E+00  0.5025E-01
      2.440  0.0000E+00  0.5025E-01
      2.756  0.0000E+00  0.5025E-01
      3.071  0.0000E+00  0.5025E-01
      3.387  0.0000E+00  0.5025E-01
      3.702  0.0000E+00  0.5025E-01
      4.018  0.0000E+00  0.5025E-01
      4.333  0.0000E+00  0.5025E-01
      4.649  0.0000E+00  0.5025E-01
      4.964  0.0000E+00  0.5025E-01
      5.280  0.0000E+00  0.5025E-01
      5.595  0.0000E+00  0.5025E-01
      5.911  0.0000E+00  0.5025E-01
      6.226  0.0000E+00  0.5025E-01
      6.542  0.0000E+00  0.5025E-01
      6.857  0.0000E+00  0.5025E-01
      7.173  0.0000E+00  0.5025E-01
      7.488  0.0000E+00  0.5025E-01
      7.804  0.0000E+00  0.5025E-01
      8.119  0.0000E+00  0.5025E-01
      8.435  0.0000E+00  0.5025E-01
      8.751  0.0000E+00  0.5025E-01
      9.066  0.0000E+00  0.5025E-01
      9.382  0.1160E-03  0.5029E-01
      9.697  0.0000E+00  0.5037E-01
     10.013  0.0000E+00  0.5052E-01
     10.328  0.4640E-03  0.5091E-01
     10.644  0.8090E-03  0.5128E-01
     10.959  0.1044E-02  0.5218E-01
     11.275  0.3480E-03  0.5275E-01
     11.590  0.6943E-03  0.5363E-01
     11.906  0.6959E-03  0.5446E-01
     12.221  0.1392E-02  0.5489E-01
     12.537  0.4426E-03  0.5580E-01
     12.852  0.0000E+00  0.5624E-01
     13.168  0.1604E-02  0.5718E-01
     13.483  0.0000E+00  0.5772E-01
     13.799  0.4835E-03  0.5820E-01
     14.114  0.2004E-11  0.5852E-01
     14.430  0.3570E-03  0.5929E-01
     14.745  0.3278E-03  0.5966E-01
     15.061  0.9697E-03  0.6039E-01
     15.376  0.3480E-03  0.6140E-01
     15.692  0.5427E-03  0.6289E-01
     16.007  0.1816E-02  0.6450E-01
     16.323  0.1629E-02  0.6598E-01
     16.638  0.6959E-03  0.6692E-01
     16.954  0.1739E-02  0.6782E-01
     17.269  0.0000E+00  0.6866E-01
     17.585  0.1389E-03  0.6871E-01
     17.900  0.3480E-03  0.6917E-01
     18.216  0.7377E-03  0.7011E-01
     18.532  0.6764E-03  0.7043E-01
     18.847  0.1108E-02  0.7167E-01
     19.163  0.1403E-02  0.7242E-01
     19.478  0.7190E-03  0.7414E-01
     19.794  0.1470E-02  0.7766E-01
     20.109  0.2790E-02  0.8159E-01
     20.425  0.1512E-02  0.8479E-01
     20.740  0.1507E-02  0.8717E-01
     21.056  0.8698E-03  0.8851E-01
     21.371  0.8311E-03  0.8921E-01
     21.687  0.0000E+00  0.8995E-01
     22.002  0.1740E-03  0.9034E-01
     22.318  0.4664E-03  0.9073E-01
     22.633  0.5219E-03  0.9130E-01
     22.949  0.2463E-03  0.9173E-01
     23.264  0.6945E-03  0.9226E-01
     23.580  0.3055E-06  0.9226E-01
     23.895  0.1421E-02  0.9300E-01
     24.211  0.2996E-07  0.9324E-01
     24.526  0.3374E-08  0.9369E-01
     24.842  0.6966E-03  0.9424E-01
     25.157  0.4183E-04  0.9442E-01
     25.473  0.6972E-13  0.9486E-01
     25.788  0.6964E-03  0.9559E-01
     26.104  0.8124E-03  0.9618E-01
     26.419  0.2702E-07  0.9661E-01
     26.735  0.3477E-03  0.9702E-01
     27.050  0.2756E-03  0.9747E-01
     27.366  0.3480E-03  0.9804E-01
     27.681  0.8694E-03  0.9910E-01
     27.997  0.3533E-03  0.9947E-01
     28.313  0.0000E+00  0.1002E+00
     28.628  0.1488E-03  0.1004E+00
     28.944  0.1160E-02  0.1013E+00
     29.259  0.6959E-03  0.1020E+00
     29.575  0.1740E-03  0.1030E+00
     29.890  0.1348E-02  0.1037E+00
     30.206  0.8290E-03  0.1044E+00
     30.521  0.5800E-03  0.1048E+00
     30.837  0.2793E-02  0.1064E+00
     31.152  0.1380E-02  0.1074E+00
     31.468  0.3480E-03  0.1087E+00
     31.783  0.3321E-05  0.1094E+00
     32.099  0.6936E-03  0.1103E+00
     32.414  0.8699E-03  0.1114E+00
     32.730  0.3480E-03  0.1117E+00
     33.045  0.4391E-06  0.1123E+00
     33.361  0.2174E-03  0.1132E+00
     33.676  0.6959E-03  0.1137E+00
     33.992  0.6621E-03  0.1141E+00
     34.307  0.6008E-03  0.1149E+00
     34.623  0.7160E-03  0.1157E+00
     34.938  0.0000E+00  0.1166E+00
     35.254  0.3480E-03  0.1170E+00
     35.569  0.3510E-03  0.1173E+00
     35.885  0.1472E-02  0.1184E+00
     36.200  0.6959E-03  0.1191E+00
     36.516  0.8329E-05  0.1196E+00
     36.831  0.0000E+00  0.1201E+00
     37.147  0.0000E+00  0.1202E+00
     37.463  0.0000E+00  0.1202E+00
     37.778  0.0000E+00  0.1204E+00
     38.094  0.2240E-03  0.1205E+00
     38.409  0.0000E+00  0.1205E+00
     38.725  0.0000E+00  0.1205E+00
     39.040  0.0000E+00  0.1206E+00
     39.356  0.0000E+00  0.1206E+00
     39.671  0.0000E+00  0.1206E+00
     39.987  0.0000E+00  0.1206E+00
     40.302  0.0000E+00  0.1206E+00
     40.618  0.0000E+00  0.1206E+00
     40.933  0.0000E+00  0.1206E+00
     41.249  0.0000E+00  0.1206E+00
     41.564  0.0000E+00  0.1206E+00
     41.880  0.0000E+00  0.1206E+00
     42.195  0.0000E+00  0.1206E+00
     42.511  0.1170E-09  0.1206E+00
     42.826  0.0000E+00  0.1206E+00
     43.142  0.0000E+00  0.1206E+00
     43.457  0.0000E+00  0.1206E+00
     43.773  0.0000E+00  0.1206E+00
     44.088  0.0000E+00  0.1206E+00
     44.404  0.0000E+00  0.1206E+00
     44.719  0.0000E+00  0.1206E+00
     45.035  0.0000E+00  0.1206E+00
     45.350  0.0000E+00  0.1206E+00
     45.666  0.0000E+00  0.1206E+00
     45.981  0.0000E+00  0.1206E+00
     46.297  0.0000E+00  0.1206E+00
     46.612  0.0000E+00  0.1206E+00
     46.928  0.0000E+00  0.1206E+00
     46.92798780    -47.72688010  301     -1.26711577      1.00000000
    -47.727  0.0000E+00  0.0000E+00  0.0000E+00  0.0000E+00  0.0000E+00  0.0000E+00  0.0000E+00  0.0000E+00  0.0000E+00
    -47.411  0.0000E+00  0.0000E+00  0.0000E+00  0.0000E+00  0.0000E+00  0.0000E+00  0.0000E+00  0.0000E+00  0.0000E+00
    -47.096  0.0000E+00  0.0000E+00  0.0000E+00  0.0000E+00  0.0000E+00  0.0000E+00  0.0000E+00  0.0000E+00  0.0000E+00
    -46.780  0.0000E+00  0.0000E+00  0.0000E+00  0.0000E+00  0.0000E+00  0.0000E+00  0.0000E+00  0.0000E+00  0.0000E+00
    -46.465  0.0000E+00  0.0000E+00  0.0000E+00  0.0000E+00  0.0000E+00  0.0000E+00  0.0000E+00  0.0000E+00  0.0000E+00
    -46.149  0.0000E+00  0.0000E+00  0.0000E+00  0.0000E+00  0.0000E+00  0.0000E+00  0.0000E+00  0.0000E+00  0.0000E+00
    -45.834  0.0000E+00  0.0000E+00  0.0000E+00  0.0000E+00  0.0000E+00  0.0000E+00  0.0000E+00  0.0000E+00  0.0000E+00
    -45.518  0.0000E+00  0.0000E+00  0.0000E+00  0.0000E+00  0.0000E+00  0.0000E+00  0.0000E+00  0.0000E+00  0.0000E+00
    -45.203  0.0000E+00  0.0000E+00  0.0000E+00  0.0000E+00  0.0000E+00  0.0000E+00  0.0000E+00  0.0000E+00  0.0000E+00
    -44.887  0.0000E+00  0.0000E+00  0.0000E+00  0.0000E+00  0.0000E+00  0.0000E+00  0.0000E+00  0.0000E+00  0.0000E+00
    -44.572  0.0000E+00  0.0000E+00  0.0000E+00  0.0000E+00  0.0000E+00  0.0000E+00  0.0000E+00  0.0000E+00  0.0000E+00
    -44.256  0.0000E+00  0.0000E+00  0.0000E+00  0.0000E+00  0.0000E+00  0.0000E+00  0.0000E+00  0.0000E+00  0.0000E+00
    -43.941  0.0000E+00  0.0000E+00  0.0000E+00  0.0000E+00  0.0000E+00  0.0000E+00  0.0000E+00  0.0000E+00  0.0000E+00
    -43.625  0.0000E+00  0.0000E+00  0.0000E+00  0.0000E+00  0.0000E+00  0.0000E+00  0.0000E+00  0.0000E+00  0.0000E+00
    -43.310  0.5754E+01  0.2876E-06  0.2876E-06  0.2876E-06  0.0000E+00  0.0000E+00  0.0000E+00  0.0000E+00  0.0000E+00
    -42.994  0.0000E+00  0.0000E+00  0.0000E+00  0.0000E+00  0.0000E+00  0.0000E+00  0.0000E+00  0.0000E+00  0.0000E+00
    -42.679  0.0000E+00  0.0000E+00  0.0000E+00  0.0000E+00  0.0000E+00  0.0000E+00  0.0000E+00  0.0000E+00  0.0000E+00
    -42.363  0.0000E+00  0.0000E+00  0.0000E+00  0.0000E+00  0.0000E+00  0.0000E+00  0.0000E+00  0.0000E+00  0.0000E+00
    -42.048  0.0000E+00  0.0000E+00  0.0000E+00  0.0000E+00  0.0000E+00  0.0000E+00  0.0000E+00  0.0000E+00  0.0000E+00
    -41.732  0.0000E+00  0.0000E+00  0.0000E+00  0.0000E+00  0.0000E+00  0.0000E+00  0.0000E+00  0.0000E+00  0.0000E+00
    -41.417  0.0000E+00  0.0000E+00  0.0000E+00  0.0000E+00  0.0000E+00  0.0000E+00  0.0000E+00  0.0000E+00  0.0000E+00
    -41.101  0.0000E+00  0.0000E+00  0.0000E+00  0.0000E+00  0.0000E+00  0.0000E+00  0.0000E+00  0.0000E+00  0.0000E+00
    -40.786  0.0000E+00  0.0000E+00  0.0000E+00  0.0000E+00  0.0000E+00  0.0000E+00  0.0000E+00  0.0000E+00  0.0000E+00
    -40.470  0.0000E+00  0.0000E+00  0.0000E+00  0.0000E+00  0.0000E+00  0.0000E+00  0.0000E+00  0.0000E+00  0.0000E+00
    -40.154  0.0000E+00  0.0000E+00  0.0000E+00  0.0000E+00  0.0000E+00  0.0000E+00  0.0000E+00  0.0000E+00  0.0000E+00
    -39.839  0.0000E+00  0.0000E+00  0.0000E+00  0.0000E+00  0.0000E+00  0.0000E+00  0.0000E+00  0.0000E+00  0.0000E+00
    -39.523  0.0000E+00  0.0000E+00  0.0000E+00  0.0000E+00  0.0000E+00  0.0000E+00  0.0000E+00  0.0000E+00  0.0000E+00
    -39.208  0.0000E+00  0.0000E+00  0.0000E+00  0.0000E+00  0.0000E+00  0.0000E+00  0.0000E+00  0.0000E+00  0.0000E+00
    -38.892  0.0000E+00  0.0000E+00  0.0000E+00  0.0000E+00  0.0000E+00  0.0000E+00  0.0000E+00  0.0000E+00  0.0000E+00
    -38.577  0.0000E+00  0.0000E+00  0.0000E+00  0.0000E+00  0.0000E+00  0.0000E+00  0.0000E+00  0.0000E+00  0.0000E+00
    -38.261  0.0000E+00  0.0000E+00  0.0000E+00  0.0000E+00  0.0000E+00  0.0000E+00  0.0000E+00  0.0000E+00  0.0000E+00
    -37.946  0.0000E+00  0.0000E+00  0.0000E+00  0.0000E+00  0.0000E+00  0.0000E+00  0.0000E+00  0.0000E+00  0.0000E+00
    -37.630  0.0000E+00  0.0000E+00  0.0000E+00  0.0000E+00  0.0000E+00  0.0000E+00  0.0000E+00  0.0000E+00  0.0000E+00
    -37.315  0.0000E+00  0.0000E+00  0.0000E+00  0.0000E+00  0.0000E+00  0.0000E+00  0.0000E+00  0.0000E+00  0.0000E+00
    -36.999  0.0000E+00  0.0000E+00  0.0000E+00  0.0000E+00  0.0000E+00  0.0000E+00  0.0000E+00  0.0000E+00  0.0000E+00
    -36.684  0.0000E+00  0.0000E+00  0.0000E+00  0.0000E+00  0.0000E+00  0.0000E+00  0.0000E+00  0.0000E+00  0.0000E+00
    -36.368  0.0000E+00  0.0000E+00  0.0000E+00  0.0000E+00  0.0000E+00  0.0000E+00  0.0000E+00  0.0000E+00  0.0000E+00
    -36.053  0.0000E+00  0.0000E+00  0.0000E+00  0.0000E+00  0.0000E+00  0.0000E+00  0.0000E+00  0.0000E+00  0.0000E+00
    -35.737  0.0000E+00  0.0000E+00  0.0000E+00  0.0000E+00  0.0000E+00  0.0000E+00  0.0000E+00  0.0000E+00  0.0000E+00
    -35.422  0.0000E+00  0.0000E+00  0.0000E+00  0.0000E+00  0.0000E+00  0.0000E+00  0.0000E+00  0.0000E+00  0.0000E+00
    -35.106  0.0000E+00  0.0000E+00  0.0000E+00  0.0000E+00  0.0000E+00  0.0000E+00  0.0000E+00  0.0000E+00  0.0000E+00
    -34.791  0.0000E+00  0.0000E+00  0.0000E+00  0.0000E+00  0.0000E+00  0.0000E+00  0.0000E+00  0.0000E+00  0.0000E+00
    -34.475  0.0000E+00  0.0000E+00  0.0000E+00  0.0000E+00  0.0000E+00  0.0000E+00  0.0000E+00  0.0000E+00  0.0000E+00
    -34.160  0.0000E+00  0.0000E+00  0.0000E+00  0.0000E+00  0.0000E+00  0.0000E+00  0.0000E+00  0.0000E+00  0.0000E+00
    -33.844  0.0000E+00  0.0000E+00  0.0000E+00  0.0000E+00  0.0000E+00  0.0000E+00  0.0000E+00  0.0000E+00  0.0000E+00
    -33.529  0.0000E+00  0.0000E+00  0.0000E+00  0.0000E+00  0.0000E+00  0.0000E+00  0.0000E+00  0.0000E+00  0.0000E+00
    -33.213  0.0000E+00  0.0000E+00  0.0000E+00  0.0000E+00  0.0000E+00  0.0000E+00  0.0000E+00  0.0000E+00  0.0000E+00
    -32.898  0.0000E+00  0.0000E+00  0.0000E+00  0.0000E+00  0.0000E+00  0.0000E+00  0.0000E+00  0.0000E+00  0.0000E+00
    -32.582  0.0000E+00  0.0000E+00  0.0000E+00  0.0000E+00  0.0000E+00  0.0000E+00  0.0000E+00  0.0000E+00  0.0000E+00
    -32.267  0.0000E+00  0.0000E+00  0.0000E+00  0.0000E+00  0.0000E+00  0.0000E+00  0.0000E+00  0.0000E+00  0.0000E+00
    -31.951  0.0000E+00  0.0000E+00  0.0000E+00  0.0000E+00  0.0000E+00  0.0000E+00  0.0000E+00  0.0000E+00  0.0000E+00
    -31.636  0.0000E+00  0.0000E+00  0.0000E+00  0.0000E+00  0.0000E+00  0.0000E+00  0.0000E+00  0.0000E+00  0.0000E+00
    -31.320  0.0000E+00  0.0000E+00  0.0000E+00  0.0000E+00  0.0000E+00  0.0000E+00  0.0000E+00  0.0000E+00  0.0000E+00
    -31.005  0.0000E+00  0.0000E+00  0.0000E+00  0.0000E+00  0.0000E+00  0.0000E+00  0.0000E+00  0.0000E+00  0.0000E+00
    -30.689  0.0000E+00  0.0000E+00  0.0000E+00  0.0000E+00  0.0000E+00  0.0000E+00  0.0000E+00  0.0000E+00  0.0000E+00
    -30.373  0.0000E+00  0.0000E+00  0.0000E+00  0.0000E+00  0.0000E+00  0.0000E+00  0.0000E+00  0.0000E+00  0.0000E+00
    -30.058  0.0000E+00  0.0000E+00  0.0000E+00  0.0000E+00  0.0000E+00  0.0000E+00  0.0000E+00  0.0000E+00  0.0000E+00
    -29.742  0.0000E+00  0.0000E+00  0.0000E+00  0.0000E+00  0.0000E+00  0.0000E+00  0.0000E+00  0.0000E+00  0.0000E+00
    -29.427  0.0000E+00  0.0000E+00  0.0000E+00  0.0000E+00  0.0000E+00  0.0000E+00  0.0000E+00  0.0000E+00  0.0000E+00
    -29.111  0.0000E+00  0.0000E+00  0.0000E+00  0.0000E+00  0.0000E+00  0.0000E+00  0.0000E+00  0.0000E+00  0.0000E+00
    -28.796  0.0000E+00  0.0000E+00  0.0000E+00  0.0000E+00  0.0000E+00  0.0000E+00  0.0000E+00  0.0000E+00  0.0000E+00
    -28.480  0.0000E+00  0.0000E+00  0.0000E+00  0.0000E+00  0.0000E+00  0.0000E+00  0.0000E+00  0.0000E+00  0.0000E+00
    -28.165  0.0000E+00  0.0000E+00  0.0000E+00  0.0000E+00  0.0000E+00  0.0000E+00  0.0000E+00  0.0000E+00  0.0000E+00
    -27.849  0.0000E+00  0.0000E+00  0.0000E+00  0.0000E+00  0.0000E+00  0.0000E+00  0.0000E+00  0.0000E+00  0.0000E+00
    -27.534  0.0000E+00  0.0000E+00  0.0000E+00  0.0000E+00  0.0000E+00  0.0000E+00  0.0000E+00  0.0000E+00  0.0000E+00
    -27.218  0.0000E+00  0.0000E+00  0.0000E+00  0.0000E+00  0.0000E+00  0.0000E+00  0.0000E+00  0.0000E+00  0.0000E+00
    -26.903  0.0000E+00  0.0000E+00  0.0000E+00  0.0000E+00  0.0000E+00  0.0000E+00  0.0000E+00  0.0000E+00  0.0000E+00
    -26.587  0.0000E+00  0.0000E+00  0.0000E+00  0.0000E+00  0.0000E+00  0.0000E+00  0.0000E+00  0.0000E+00  0.0000E+00
    -26.272  0.0000E+00  0.0000E+00  0.0000E+00  0.0000E+00  0.0000E+00  0.0000E+00  0.0000E+00  0.0000E+00  0.0000E+00
    -25.956  0.0000E+00  0.0000E+00  0.0000E+00  0.0000E+00  0.0000E+00  0.0000E+00  0.0000E+00  0.0000E+00  0.0000E+00
    -25.641  0.0000E+00  0.0000E+00  0.0000E+00  0.0000E+00  0.0000E+00  0.0000E+00  0.0000E+00  0.0000E+00  0.0000E+00
    -25.325  0.0000E+00  0.0000E+00  0.0000E+00  0.0000E+00  0.0000E+00  0.0000E+00  0.0000E+00  0.0000E+00  0.0000E+00
    -25.010  0.0000E+00  0.0000E+00  0.0000E+00  0.0000E+00  0.0000E+00  0.0000E+00  0.0000E+00  0.0000E+00  0.0000E+00
    -24.694  0.0000E+00  0.0000E+00  0.0000E+00  0.0000E+00  0.0000E+00  0.0000E+00  0.0000E+00  0.0000E+00  0.0000E+00
    -24.379  0.0000E+00  0.0000E+00  0.0000E+00  0.0000E+00  0.0000E+00  0.0000E+00  0.0000E+00  0.0000E+00  0.0000E+00
    -24.063  0.0000E+00  0.0000E+00  0.0000E+00  0.0000E+00  0.0000E+00  0.0000E+00  0.0000E+00  0.0000E+00  0.0000E+00
    -23.748  0.0000E+00  0.0000E+00  0.0000E+00  0.0000E+00  0.0000E+00  0.0000E+00  0.0000E+00  0.0000E+00  0.0000E+00
    -23.432  0.0000E+00  0.0000E+00  0.0000E+00  0.0000E+00  0.0000E+00  0.0000E+00  0.0000E+00  0.0000E+00  0.0000E+00
    -23.117  0.0000E+00  0.0000E+00  0.0000E+00  0.0000E+00  0.0000E+00  0.0000E+00  0.0000E+00  0.0000E+00  0.0000E+00
    -22.801  0.0000E+00  0.0000E+00  0.0000E+00  0.0000E+00  0.0000E+00  0.0000E+00  0.0000E+00  0.0000E+00  0.0000E+00
    -22.486  0.1758E-02  0.4966E-05  0.4966E-05  0.4966E-05  0.0000E+00  0.0000E+00  0.0000E+00  0.0000E+00  0.0000E+00
    -22.170  0.1971E-02  0.1107E-03  0.1107E-03  0.1107E-03  0.0000E+00  0.0000E+00  0.0000E+00  0.0000E+00  0.0000E+00
    -21.855  0.3081E-03  0.1216E-04  0.1216E-04  0.1216E-04  0.0000E+00  0.0000E+00  0.0000E+00  0.0000E+00  0.0000E+00
    -21.539  0.0000E+00  0.0000E+00  0.0000E+00  0.0000E+00  0.0000E+00  0.0000E+00  0.0000E+00  0.0000E+00  0.0000E+00
    -21.224  0.0000E+00  0.0000E+00  0.0000E+00  0.0000E+00  0.0000E+00  0.0000E+00  0.0000E+00  0.0000E+00  0.0000E+00
    -20.908  0.0000E+00  0.0000E+00  0.0000E+00  0.0000E+00  0.0000E+00  0.0000E+00  0.0000E+00  0.0000E+00  0.0000E+00
    -20.592  0.0000E+00  0.0000E+00  0.0000E+00  0.0000E+00  0.0000E+00  0.0000E+00  0.0000E+00  0.0000E+00  0.0000E+00
    -20.277  0.0000E+00  0.0000E+00  0.0000E+00  0.0000E+00  0.0000E+00  0.0000E+00  0.0000E+00  0.0000E+00  0.0000E+00
    -19.961  0.0000E+00  0.0000E+00  0.0000E+00  0.0000E+00  0.0000E+00  0.0000E+00  0.0000E+00  0.0000E+00  0.0000E+00
    -19.646  0.0000E+00  0.0000E+00  0.0000E+00  0.0000E+00  0.0000E+00  0.0000E+00  0.0000E+00  0.0000E+00  0.0000E+00
    -19.330  0.0000E+00  0.0000E+00  0.0000E+00  0.0000E+00  0.0000E+00  0.0000E+00  0.0000E+00  0.0000E+00  0.0000E+00
    -19.015  0.0000E+00  0.0000E+00  0.0000E+00  0.0000E+00  0.0000E+00  0.0000E+00  0.0000E+00  0.0000E+00  0.0000E+00
    -18.699  0.0000E+00  0.0000E+00  0.0000E+00  0.0000E+00  0.0000E+00  0.0000E+00  0.0000E+00  0.0000E+00  0.0000E+00
    -18.384  0.0000E+00  0.0000E+00  0.0000E+00  0.0000E+00  0.0000E+00  0.0000E+00  0.0000E+00  0.0000E+00  0.0000E+00
    -18.068  0.0000E+00  0.0000E+00  0.0000E+00  0.0000E+00  0.0000E+00  0.0000E+00  0.0000E+00  0.0000E+00  0.0000E+00
    -17.753  0.0000E+00  0.0000E+00  0.0000E+00  0.0000E+00  0.0000E+00  0.0000E+00  0.0000E+00  0.0000E+00  0.0000E+00
    -17.437  0.0000E+00  0.0000E+00  0.0000E+00  0.0000E+00  0.0000E+00  0.0000E+00  0.0000E+00  0.0000E+00  0.0000E+00
    -17.122  0.0000E+00  0.0000E+00  0.0000E+00  0.0000E+00  0.0000E+00  0.0000E+00  0.0000E+00  0.0000E+00  0.0000E+00
    -16.806  0.0000E+00  0.0000E+00  0.0000E+00  0.0000E+00  0.0000E+00  0.0000E+00  0.0000E+00  0.0000E+00  0.0000E+00
    -16.491  0.0000E+00  0.0000E+00  0.0000E+00  0.0000E+00  0.0000E+00  0.0000E+00  0.0000E+00  0.0000E+00  0.0000E+00
    -16.175  0.0000E+00  0.0000E+00  0.0000E+00  0.0000E+00  0.0000E+00  0.0000E+00  0.0000E+00  0.0000E+00  0.0000E+00
    -15.860  0.0000E+00  0.0000E+00  0.0000E+00  0.0000E+00  0.0000E+00  0.0000E+00  0.0000E+00  0.0000E+00  0.0000E+00
    -15.544  0.0000E+00  0.0000E+00  0.0000E+00  0.0000E+00  0.0000E+00  0.0000E+00  0.0000E+00  0.0000E+00  0.0000E+00
    -15.229  0.0000E+00  0.0000E+00  0.0000E+00  0.0000E+00  0.0000E+00  0.0000E+00  0.0000E+00  0.0000E+00  0.0000E+00
    -14.913  0.0000E+00  0.0000E+00  0.0000E+00  0.0000E+00  0.0000E+00  0.0000E+00  0.0000E+00  0.0000E+00  0.0000E+00
    -14.598  0.0000E+00  0.0000E+00  0.0000E+00  0.0000E+00  0.0000E+00  0.0000E+00  0.0000E+00  0.0000E+00  0.0000E+00
    -14.282  0.0000E+00  0.0000E+00  0.0000E+00  0.0000E+00  0.0000E+00  0.0000E+00  0.0000E+00  0.0000E+00  0.0000E+00
    -13.967  0.0000E+00  0.0000E+00  0.0000E+00  0.0000E+00  0.0000E+00  0.0000E+00  0.0000E+00  0.0000E+00  0.0000E+00
    -13.651  0.0000E+00  0.0000E+00  0.0000E+00  0.0000E+00  0.0000E+00  0.0000E+00  0.0000E+00  0.0000E+00  0.0000E+00
    -13.336  0.0000E+00  0.0000E+00  0.0000E+00  0.0000E+00  0.0000E+00  0.0000E+00  0.0000E+00  0.0000E+00  0.0000E+00
    -13.020  0.0000E+00  0.0000E+00  0.0000E+00  0.0000E+00  0.0000E+00  0.0000E+00  0.0000E+00  0.0000E+00  0.0000E+00
    -12.705  0.0000E+00  0.0000E+00  0.0000E+00  0.0000E+00  0.0000E+00  0.0000E+00  0.0000E+00  0.0000E+00  0.0000E+00
    -12.389  0.0000E+00  0.0000E+00  0.0000E+00  0.0000E+00  0.0000E+00  0.0000E+00  0.0000E+00  0.0000E+00  0.0000E+00
    -12.074  0.0000E+00  0.0000E+00  0.0000E+00  0.0000E+00  0.0000E+00  0.0000E+00  0.0000E+00  0.0000E+00  0.0000E+00
    -11.758  0.0000E+00  0.0000E+00  0.0000E+00  0.0000E+00  0.0000E+00  0.0000E+00  0.0000E+00  0.0000E+00  0.0000E+00
    -11.443  0.0000E+00  0.0000E+00  0.0000E+00  0.0000E+00  0.0000E+00  0.0000E+00  0.0000E+00  0.0000E+00  0.0000E+00
    -11.127  0.0000E+00  0.0000E+00  0.0000E+00  0.0000E+00  0.0000E+00  0.0000E+00  0.0000E+00  0.0000E+00  0.0000E+00
    -10.811  0.0000E+00  0.0000E+00  0.0000E+00  0.0000E+00  0.0000E+00  0.0000E+00  0.0000E+00  0.0000E+00  0.0000E+00
    -10.496  0.0000E+00  0.0000E+00  0.0000E+00  0.0000E+00  0.0000E+00  0.0000E+00  0.0000E+00  0.0000E+00  0.0000E+00
    -10.180  0.0000E+00  0.0000E+00  0.0000E+00  0.0000E+00  0.0000E+00  0.0000E+00  0.0000E+00  0.0000E+00  0.0000E+00
     -9.865  0.0000E+00  0.0000E+00  0.0000E+00  0.0000E+00  0.0000E+00  0.0000E+00  0.0000E+00  0.0000E+00  0.0000E+00
     -9.549  0.0000E+00  0.0000E+00  0.0000E+00  0.0000E+00  0.0000E+00  0.0000E+00  0.0000E+00  0.0000E+00  0.0000E+00
     -9.234  0.0000E+00  0.0000E+00  0.0000E+00  0.0000E+00  0.0000E+00  0.0000E+00  0.0000E+00  0.0000E+00  0.0000E+00
     -8.918  0.0000E+00  0.0000E+00  0.0000E+00  0.0000E+00  0.0000E+00  0.0000E+00  0.0000E+00  0.0000E+00  0.0000E+00
     -8.603  0.0000E+00  0.0000E+00  0.0000E+00  0.0000E+00  0.0000E+00  0.0000E+00  0.0000E+00  0.0000E+00  0.0000E+00
     -8.287  0.0000E+00  0.0000E+00  0.0000E+00  0.0000E+00  0.0000E+00  0.0000E+00  0.0000E+00  0.0000E+00  0.0000E+00
     -7.972  0.0000E+00  0.0000E+00  0.0000E+00  0.0000E+00  0.0000E+00  0.0000E+00  0.0000E+00  0.0000E+00  0.0000E+00
     -7.656  0.0000E+00  0.0000E+00  0.0000E+00  0.0000E+00  0.0000E+00  0.0000E+00  0.0000E+00  0.0000E+00  0.0000E+00
     -7.341  0.0000E+00  0.0000E+00  0.0000E+00  0.0000E+00  0.0000E+00  0.0000E+00  0.0000E+00  0.0000E+00  0.0000E+00
     -7.025  0.0000E+00  0.0000E+00  0.0000E+00  0.0000E+00  0.0000E+00  0.0000E+00  0.0000E+00  0.0000E+00  0.0000E+00
     -6.710  0.0000E+00  0.0000E+00  0.0000E+00  0.0000E+00  0.0000E+00  0.0000E+00  0.0000E+00  0.0000E+00  0.0000E+00
     -6.394  0.0000E+00  0.0000E+00  0.0000E+00  0.0000E+00  0.0000E+00  0.0000E+00  0.0000E+00  0.0000E+00  0.0000E+00
     -6.079  0.0000E+00  0.0000E+00  0.0000E+00  0.0000E+00  0.0000E+00  0.0000E+00  0.0000E+00  0.0000E+00  0.0000E+00
     -5.763  0.0000E+00  0.0000E+00  0.0000E+00  0.0000E+00  0.0000E+00  0.0000E+00  0.0000E+00  0.0000E+00  0.0000E+00
     -5.448  0.0000E+00  0.0000E+00  0.0000E+00  0.0000E+00  0.0000E+00  0.0000E+00  0.0000E+00  0.0000E+00  0.0000E+00
     -5.132  0.0000E+00  0.0000E+00  0.0000E+00  0.0000E+00  0.0000E+00  0.0000E+00  0.0000E+00  0.0000E+00  0.0000E+00
     -4.817  0.0000E+00  0.0000E+00  0.0000E+00  0.0000E+00  0.0000E+00  0.0000E+00  0.0000E+00  0.0000E+00  0.0000E+00
     -4.501  0.9904E-05  0.1378E-03  0.1378E-03  0.1378E-03  0.0000E+00  0.0000E+00  0.0000E+00  0.0000E+00  0.0000E+00
     -4.186  0.7568E-05  0.5278E-05  0.5278E-05  0.5278E-05  0.0000E+00  0.0000E+00  0.0000E+00  0.0000E+00  0.0000E+00
     -3.870  0.9978E-02  0.7706E-03  0.7706E-03  0.7706E-03  0.0000E+00  0.0000E+00  0.0000E+00  0.0000E+00  0.0000E+00
     -3.555  0.6435E-02  0.3552E-03  0.3552E-03  0.3552E-03  0.0000E+00  0.0000E+00  0.0000E+00  0.0000E+00  0.0000E+00
     -3.239  0.7230E-02  0.3849E-03  0.3849E-03  0.3849E-03  0.0000E+00  0.0000E+00  0.0000E+00  0.0000E+00  0.0000E+00
     -2.924  0.1487E-02  0.1839E-03  0.1839E-03  0.1839E-03  0.0000E+00  0.0000E+00  0.0000E+00  0.0000E+00  0.0000E+00
     -2.608  0.1184E-02  0.4825E-03  0.4824E-03  0.4825E-03  0.0000E+00  0.0000E+00  0.0000E+00  0.0000E+00  0.0000E+00
     -2.293  0.2072E-02  0.6836E-03  0.6836E-03  0.6836E-03  0.0000E+00  0.0000E+00  0.0000E+00  0.0000E+00  0.0000E+00
     -1.977  0.1105E-02  0.5297E-03  0.5297E-03  0.5297E-03  0.0000E+00  0.0000E+00  0.0000E+00  0.0000E+00  0.0000E+00
     -1.662  0.7978E-04  0.1985E-03  0.1985E-03  0.1985E-03  0.0000E+00  0.0000E+00  0.0000E+00  0.0000E+00  0.0000E+00
     -1.346  0.0000E+00  0.0000E+00  0.0000E+00  0.0000E+00  0.0000E+00  0.0000E+00  0.0000E+00  0.0000E+00  0.0000E+00
     -1.030  0.0000E+00  0.0000E+00  0.0000E+00  0.0000E+00  0.0000E+00  0.0000E+00  0.0000E+00  0.0000E+00  0.0000E+00
     -0.715  0.0000E+00  0.0000E+00  0.0000E+00  0.0000E+00  0.0000E+00  0.0000E+00  0.0000E+00  0.0000E+00  0.0000E+00
     -0.399  0.0000E+00  0.0000E+00  0.0000E+00  0.0000E+00  0.0000E+00  0.0000E+00  0.0000E+00  0.0000E+00  0.0000E+00
     -0.084  0.0000E+00  0.0000E+00  0.0000E+00  0.0000E+00  0.0000E+00  0.0000E+00  0.0000E+00  0.0000E+00  0.0000E+00
      0.232  0.0000E+00  0.0000E+00  0.0000E+00  0.0000E+00  0.0000E+00  0.0000E+00  0.0000E+00  0.0000E+00  0.0000E+00
      0.547  0.0000E+00  0.0000E+00  0.0000E+00  0.0000E+00  0.0000E+00  0.0000E+00  0.0000E+00  0.0000E+00  0.0000E+00
      0.863  0.0000E+00  0.0000E+00  0.0000E+00  0.0000E+00  0.0000E+00  0.0000E+00  0.0000E+00  0.0000E+00  0.0000E+00
      1.178  0.0000E+00  0.0000E+00  0.0000E+00  0.0000E+00  0.0000E+00  0.0000E+00  0.0000E+00  0.0000E+00  0.0000E+00
      1.494  0.0000E+00  0.0000E+00  0.0000E+00  0.0000E+00  0.0000E+00  0.0000E+00  0.0000E+00  0.0000E+00  0.0000E+00