    2    2  199    1
  0.8350800E+01  0.2869182E-09  0.2869182E-09  0.2869182E-09  0.5000000E-15
  1.000000000000000E-004
  CAR 
 unknown system                          
     10   1099     12
