    2    2  199    1
  0.8350800E+01  0.2869182E-09  0.2869182E-09  0.2869182E-09  0.5000000E-15
  1.000000000000000E-004
  CAR 
 unknown system                          
     10   1099     12
 
  0.0000000E+00  0.0000000E+00  0.0000000E+00  0.4551661E-03
    1      -43.424386   1.000000
    2      -22.620959   1.000000
    3       -1.427955   1.000000
    4       -1.427955   1.000000
    5       -1.427305   1.000000
    6        9.176816   0.000000
    7       24.402655   0.000000
    8       24.402657   0.000000
    9       24.406675   0.000000
   10       25.143815   0.000000
   11       25.143816   0.000000
   12       25.146346   0.000000
 
  0.7692308E-01 -0.6938894E-17  0.3515028E-17  0.9103323E-03
    1      -43.420458   1.000000
    2      -22.597076   1.000000
    3       -1.603443   1.000000
    4       -1.443349   1.000000
    5       -1.442785   1.000000
    6        9.349744   0.000000
    7       22.272981   0.000000
    8       23.700174   0.000000
    9       23.702940   0.000000
   10       25.617369   0.000000
   11       25.620324   0.000000
   12       26.073544   0.000000
 
  0.1538462E+00 -0.2775558E-16 -0.6846964E-17  0.9103323E-03
    1      -43.410068   1.000000
    2      -22.531304   1.000000
    3       -2.066085   1.000000
    4       -1.485537   1.000000
    5       -1.485012   1.000000
    6        9.778664   0.000000
    7       20.051983   0.000000
    8       22.520634   0.000000
    9       22.522963   0.000000
   10       26.444666   0.000000
   11       26.447927   0.000000
   12       26.766128   0.000000
 
  0.2307692E+00  0.0000000E+00 -0.2414862E-16  0.9103323E-03
    1      -43.395297   1.000000
    2      -22.435968   1.000000
    3       -2.670690   1.000000
    4       -1.543611   1.000000
    5       -1.543141   1.000000
    6       10.255419   0.000000
    7       18.431821   0.000000
    8       21.347814   0.000000
    9       21.349964   0.000000
   10       27.583225   0.000000
   11       27.586595   0.000000
   12       27.703480   0.000000
 
  0.3076923E+00  0.0000000E+00 -0.1369467E-16  0.9103323E-03
    1      -43.379436   1.000000
    2      -22.330994   1.000000
    3       -3.266894   1.000000
    4       -1.603546   1.000000
    5       -1.603132   1.000000
    6       10.565899   0.000000
    7       17.509531   0.000000
    8       20.376061   0.000000
    9       20.378155   0.000000
   10       28.866920   0.000000
   11       28.985354   0.000000
   12       28.988759   0.000000
 
  0.3846154E+00  0.2775558E-16 -0.4487332E-16  0.9103323E-03
    1      -43.366307   1.000000
    2      -22.241085   1.000000
    3       -3.734184   1.000000
    4       -1.651997   1.000000
    5       -1.651631   1.000000
    6       10.641253   0.000000
    7       17.180061   0.000000
    8       19.693378   0.000000
    9       19.695465   0.000000
   10       30.149356   0.000000
   11       30.455239   0.000000
   12       30.458537   0.000000
 
  0.4615385E+00  0.0000000E+00 -0.4829724E-16  0.9103323E-03
    1      -43.359089   1.000000
    2      -22.189517   1.000000
    3       -3.989426   1.000000
    4       -1.678957   1.000000
    5       -1.678618   1.000000
    6       10.608673   0.000000
    7       17.141166   0.000000
    8       19.340275   0.000000
    9       19.342364   0.000000
   10       31.277501   0.000000
   11       31.535154   0.000000
   12       31.538258   0.000000
 
 -0.1387779E-16  0.7692308E-01 -0.2385589E-17  0.9103323E-03
    1      -43.420458   1.000000
    2      -22.597076   1.000000
    3       -1.603443   1.000000
    4       -1.443349   1.000000
    5       -1.442785   1.000000
    6        9.349744   0.000000
    7       22.272981   0.000000
    8       23.700174   0.000000
    9       23.702940   0.000000
   10       25.617369   0.000000
   11       25.620324   0.000000
   12       26.073544   0.000000
 
  0.7692308E-01  0.7692308E-01 -0.1308931E-17  0.9103323E-03
    1      -43.419253   1.000000
    2      -22.588872   1.000000
    3       -1.581798   1.000000
    4       -1.491274   1.000000
    5       -1.490820   1.000000
    6        9.416294   0.000000
    7       22.826018   0.000000
    8       23.075507   0.000000
    9       23.077709   0.000000
   10       24.047012   0.000000
   11       27.047850   0.000000
   12       27.050011   0.000000
 
  0.1538462E+00  0.7692308E-01 -0.9232553E-17  0.9103323E-03
    1      -43.411104   1.000000
    2      -22.536123   1.000000
    3       -1.935797   1.000000
    4       -1.561683   1.000000
    5       -1.513504   1.000000
    6        9.784934   0.000000
    7       20.609275   0.000000
    8       22.336452   0.000000
    9       22.778715   0.000000
   10       23.904442   0.000000
   11       27.918852   0.000000
   12       28.056452   0.000000
 
  0.2307692E+00  0.7692308E-01 -0.4735089E-16  0.9103323E-03
    1      -43.397801   1.000000
    2      -22.448839   1.000000
    3       -2.493077   1.000000
    4       -1.638161   1.000000
    5       -1.559804   1.000000
    6       10.288844   0.000000
    7       18.777637   0.000000
    8       21.483485   0.000000
    9       21.600135   0.000000
   10       24.954138   0.000000
   11       28.766111   0.000000
   12       28.918738   0.000000
 
  0.3076923E+00  0.7692308E-01 -0.2301918E-16  0.9103323E-03
    1      -43.382380   1.000000
    2      -22.344950   1.000000
    3       -3.087512   1.000000
    4       -1.702294   1.000000
    5       -1.636864   1.000000
    6       10.704031   0.000000
    7       17.595826   0.000000
    8       20.596692   0.000000
    9       20.642347   0.000000
   10       26.291742   0.000000
   11       29.866384   0.000000
   12       29.978035   0.000000
 
  0.3846154E+00  0.7692308E-01 -0.4032009E-16  0.9103323E-03
    1      -43.368393   1.000000
    2      -22.247934   1.000000
    3       -3.591506   1.000000
    4       -1.739856   1.000000
    5       -1.726056   1.000000
    6       10.885917   0.000000
    7       17.051070   0.000000
    8       19.891136   0.000000
    9       19.952447   0.000000
   10       27.800547   0.000000
   11       31.080049   0.000000
   12       31.132199   0.000000
 
  0.4615385E+00  0.7692308E-01 -0.7149943E-16  0.9103323E-03
    1      -43.359222   1.000000
    2      -22.182205   1.000000
    3       -3.911933   1.000000
    4       -1.806440   1.000000
    5       -1.743203   1.000000
    6       10.889270   0.000000
    7       16.909448   0.000000
    8       19.510436   0.000000
    9       19.514440   0.000000
   10       29.327877   0.000000
   11       31.877994   0.000000
   12       31.924488   0.000000
 
 -0.4615385E+00  0.7692308E-01  0.8060614E-16  0.9103323E-03
    1      -43.356747   1.000000
    2      -22.164628   1.000000
    3       -3.993347   1.000000
    4       -1.859675   1.000000
    5       -1.712186   1.000000
    6       10.871806   0.000000
    7       16.886124   0.000000
    8       19.375828   0.000000
    9       19.453953   0.000000
   10       30.580722   0.000000
   11       31.497194   0.000000
   12       31.666300   0.000000
 
 -0.3846154E+00  0.7692308E-01 -0.6084449E-17  0.9103323E-03
    1      -43.361601   1.000000
    2      -22.200242   1.000000
    3       -3.822406   1.000000
    4       -1.873638   1.000000
    5       -1.653793   1.000000
    6       10.886891   0.000000
    7       16.896446   0.000000
    8       19.579415   0.000000
    9       19.675820   0.000000
   10       30.114144   0.000000
   11       30.354009   0.000000
   12       31.397474   0.000000
 
 -0.3076923E+00  0.7692308E-01  0.1824803E-16  0.9103323E-03
    1      -43.372715   1.000000
    2      -22.279419   1.000000
    3       -3.428983   1.000000
    4       -1.844391   1.000000
    5       -1.580553   1.000000
    6       10.832379   0.000000
    7       17.114067   0.000000
    8       20.133627   0.000000
    9       20.149782   0.000000
   10       28.676362   0.000000
   11       28.867906   0.000000
   12       30.899016   0.000000
 
 -0.2307692E+00  0.7692308E-01 -0.1293147E-16  0.9103323E-03
    1      -43.387596   1.000000
    2      -22.381731   1.000000
    3       -2.884442   1.000000
    4       -1.776112   1.000000
    5       -1.508376   1.000000
    6       10.562042   0.000000
    7       17.831421   0.000000
    8       20.815634   0.000000
    9       21.032731   0.000000
   10       27.080321   0.000000
   11       27.715837   0.000000
   12       29.891908   0.000000
 
 -0.1538462E+00  0.7692308E-01 -0.3023234E-16  0.9103323E-03
    1      -43.402664   1.000000
    2      -22.482232   1.000000
    3       -2.299464   1.000000
    4       -1.678939   1.000000
    5       -1.453624   1.000000
    6       10.092733   0.000000
    7       19.181694   0.000000
    8       21.570390   0.000000
    9       22.244908   0.000000
   10       25.756644   0.000000
   11       26.818757   0.000000
   12       28.834533   0.000000
 
 -0.7692308E-01  0.7692308E-01 -0.1977842E-16  0.9103323E-03
    1      -43.414552   1.000000
    2      -22.559200   1.000000
    3       -1.825672   1.000000
    4       -1.559243   1.000000
    5       -1.429655   1.000000
    6        9.616902   0.000000
    7       20.972579   0.000000
    8       22.384747   0.000000
    9       23.601455   0.000000
   10       24.862242   0.000000
   11       26.222598   0.000000
   12       27.661875   0.000000
 
 -0.2775558E-16  0.1538462E+00 -0.1864820E-16  0.9103323E-03
    1      -43.410068   1.000000
    2      -22.531304   1.000000
    3       -2.066085   1.000000
    4       -1.485537   1.000000
    5       -1.485012   1.000000
    6        9.778664   0.000000
    7       20.051983   0.000000
    8       22.520634   0.000000
    9       22.522963   0.000000
   10       26.444666   0.000000
   11       26.447927   0.000000
   12       26.766128   0.000000
 
  0.7692308E-01  0.1538462E+00  0.5683512E-17  0.9103323E-03
    1      -43.411104   1.000000
    2      -22.536123   1.000000
    3       -1.935797   1.000000
    4       -1.561683   1.000000
    5       -1.513504   1.000000
    6        9.784934   0.000000
    7       20.609275   0.000000
    8       22.336452   0.000000
    9       22.778715   0.000000
   10       23.904442   0.000000
   11       27.918852   0.000000
   12       28.056452   0.000000
 
  0.1538462E+00  0.1538462E+00 -0.2614844E-17  0.9103323E-03
    1      -43.405481   1.000000
    2      -22.495673   1.000000
    3       -2.028300   1.000000
    4       -1.665083   1.000000
    5       -1.664578   1.000000
    6       10.108690   0.000000
    7       20.714487   0.000000
    8       21.969814   0.000000
    9       21.971883   0.000000
   10       22.203923   0.000000
   11       29.844302   0.000000
   12       29.846569   0.000000
 
  0.2307692E+00  0.1538462E+00 -0.1504124E-16  0.9103323E-03
    1      -43.394701   1.000000
    2      -22.418273   1.000000
    3       -2.458057   1.000000
    4       -1.769436   1.000000
    5       -1.745250   1.000000
    6       10.632173   0.000000
    7       19.089220   0.000000
    8       21.276992   0.000000
    9       21.470886   0.000000
   10       22.575697   0.000000
   11       30.896187   0.000000
   12       30.937401   0.000000
 
  0.3076923E+00  0.1538462E+00 -0.1846511E-16  0.9103323E-03
    1      -43.380848   1.000000
    2      -22.318742   1.000000
    3       -2.992856   1.000000
    4       -1.852007   1.000000
    5       -1.851365   1.000000
    6       11.169183   0.000000
    7       17.668245   0.000000
    8       20.480007   0.000000
    9       20.878259   0.000000
   10       23.777206   0.000000
   11       31.574694   0.000000
   12       31.828253   0.000000
 
  0.3846154E+00  0.1538462E+00 -0.3576602E-16  0.9103323E-03
    1      -43.367434   1.000000
    2      -22.219706   1.000000
    3       -3.474906   1.000000
    4       -1.997382   1.000000
    5       -1.894493   1.000000
    6       11.523988   0.000000
    7       16.832778   0.000000
    8       19.916236   0.000000
    9       20.292303   0.000000
   10       25.199898   0.000000
   11       32.327951   0.000000
   12       32.698383   0.000000
 
  0.4615385E+00  0.1538462E+00 -0.3918978E-16  0.9103323E-03
    1      -43.357430   1.000000
    2      -22.144762   1.000000
    3       -3.807131   1.000000
    4       -2.150846   1.000000
    5       -1.888065   1.000000
    6       11.631105   0.000000
    7       16.487572   0.000000
    8       19.641312   0.000000
    9       19.833480   0.000000
   10       26.710941   0.000000
   11       32.808076   0.000000
   12       32.930845   0.000000
 
 -0.4615385E+00  0.1538462E+00  0.8516011E-16  0.9103323E-03
    1      -43.353103   1.000000
    2      -22.113388   1.000000
    3       -3.930326   1.000000
    4       -2.273710   1.000000
    5       -1.834528   1.000000
    6       11.612284   0.000000
    7       16.358301   0.000000
    8       19.589515   0.000000
    9       19.633287   0.000000
   10       28.192040   0.000000
   11       32.188214   0.000000
   12       32.331131   0.000000
 
 -0.3846154E+00  0.1538462E+00  0.5398072E-16  0.9103323E-03
    1      -43.355386   1.000000
    2      -22.133864   1.000000
    3       -3.825265   1.000000
    4       -2.334448   1.000000
    5       -1.745466   1.000000
    6       11.572377   0.000000
    7       16.293334   0.000000
    8       19.618154   0.000000
    9       19.809723   0.000000
   10       29.441716   0.000000
   11       30.849524   0.000000
   12       31.139359   0.000000
 
 -0.3076923E+00  0.1538462E+00  0.2280205E-16  0.9103323E-03
    1      -43.363877   1.000000
    2      -22.201000   1.000000
    3       -3.517766   1.000000
    4       -2.312295   1.000000
    5       -1.640240   1.000000
    6       11.452408   0.000000
    7       16.405411   0.000000
    8       19.948160   0.000000
    9       20.108959   0.000000
   10       29.061523   0.000000
   11       29.460243   0.000000
   12       30.805378   0.000000
 
 -0.2307692E+00  0.1538462E+00  0.1937816E-16  0.9103323E-03
    1      -43.376584   1.000000
    2      -22.297052   1.000000
    3       -3.082167   1.000000
    4       -2.193497   1.000000
    5       -1.542317   1.000000
    6       11.123310   0.000000
    7       16.940088   0.000000
    8       20.489468   0.000000
    9       20.577071   0.000000
   10       27.438190   0.000000
   11       28.435619   0.000000
   12       30.822136   0.000000
 
 -0.1538462E+00  0.1538462E+00 -0.1180048E-16  0.9103323E-03
    1      -43.390576   1.000000
    2      -22.398369   1.000000
    3       -2.639956   1.000000
    4       -1.968014   1.000000
    5       -1.474587   1.000000
    6       10.608082   0.000000
    7       17.964215   0.000000
    8       20.932217   0.000000
    9       21.432357   0.000000
   10       26.232224   0.000000
   11       27.497048   0.000000
   12       30.214484   0.000000
 
 -0.7692308E-01  0.1538462E+00 -0.1346557E-17  0.9103323E-03
    1      -43.402664   1.000000
    2      -22.482232   1.000000
    3       -2.299464   1.000000
    4       -1.678939   1.000000
    5       -1.453624   1.000000
    6       10.092733   0.000000
    7       19.181694   0.000000
    8       21.570389   0.000000
    9       22.244908   0.000000
   10       25.756644   0.000000
   11       26.818757   0.000000
   12       28.834533   0.000000
 
 -0.4163336E-16  0.2307692E+00  0.1366063E-16  0.9103323E-03
    1      -43.395297   1.000000
    2      -22.435968   1.000000
    3       -2.670690   1.000000
    4       -1.543611   1.000000
    5       -1.543141   1.000000
    6       10.255419   0.000000
    7       18.431821   0.000000
    8       21.347814   0.000000
    9       21.349964   0.000000
   10       27.583225   0.000000
   11       27.586595   0.000000
   12       27.703480   0.000000
 
  0.7692308E-01  0.2307692E+00  0.1023676E-16  0.9103323E-03
    1      -43.397801   1.000000
    2      -22.448839   1.000000
    3       -2.493077   1.000000
    4       -1.638161   1.000000
    5       -1.559804   1.000000
    6       10.288844   0.000000
    7       18.777637   0.000000
    8       21.483485   0.000000
    9       21.600135   0.000000
   10       24.954138   0.000000
   11       28.766111   0.000000
   12       28.918738   0.000000
 
  0.1538462E+00  0.2307692E+00  0.6813745E-17  0.9103323E-03
    1      -43.394701   1.000000
    2      -22.418273   1.000000
    3       -2.458057   1.000000
    4       -1.769436   1.000000
    5       -1.745250   1.000000
    6       10.632173   0.000000
    7       19.089220   0.000000
    8       21.276992   0.000000
    9       21.470886   0.000000
   10       22.575697   0.000000
   11       30.896187   0.000000
   12       30.937401   0.000000
 
  0.2307692E+00  0.2307692E+00 -0.1800146E-16  0.9103323E-03
    1      -43.386596   1.000000
    2      -22.350046   1.000000
    3       -2.703196   1.000000
    4       -1.906134   1.000000
    5       -1.905562   1.000000
    6       11.184267   0.000000
    7       18.943901   0.000000
    8       20.669867   0.000000
    9       21.315511   0.000000
   10       21.317500   0.000000
   11       33.198529   0.000000
   12       33.200845   0.000000
 
  0.3076923E+00  0.2307692E+00 -0.6973040E-17  0.9103323E-03
    1      -43.375362   1.000000
    2      -22.257941   1.000000
    3       -3.127951   1.000000
    4       -2.042960   1.000000
    5       -2.015629   1.000000
    6       11.811741   0.000000
    7       17.807358   0.000000
    8       20.063280   0.000000
    9       21.021375   0.000000
   10       21.833105   0.000000
   11       33.631029   0.000000
   12       34.439262   0.000000
 
  0.3846154E+00  0.2307692E+00 -0.1733495E-16  0.9103323E-03
    1      -43.363638   1.000000
    2      -22.162085   1.000000
    3       -3.532327   1.000000
    4       -2.236415   1.000000
    5       -2.076355   1.000000
    6       12.350998   0.000000
    7       16.768462   0.000000
    8       19.630740   0.000000
    9       20.626109   0.000000
   10       23.006316   0.000000
   11       33.952944   0.000000
   12       34.665855   0.000000
 
  0.4615385E+00  0.2307692E+00 -0.3463655E-16  0.9103323E-03
    1      -43.354111   1.000000
    2      -22.085148   1.000000
    3       -3.803285   1.000000
    4       -2.474853   1.000000
    5       -2.075416   1.000000
    6       12.637721   0.000000
    7       16.169039   0.000000
    8       19.458518   0.000000
    9       20.225931   0.000000
   10       24.368125   0.000000
   11       34.163584   0.000000
   12       34.168795   0.000000
 
 -0.4615385E+00  0.2307692E+00  0.1452246E-15  0.9103323E-03
    1      -43.348822   1.000000
    2      -22.046236   1.000000
    3       -3.883775   1.000000
    4       -2.705164   1.000000
    5       -2.012959   1.000000
    6       12.665893   0.000000
    7       15.872207   0.000000
    8       19.552769   0.000000
    9       19.922883   0.000000
   10       25.807691   0.000000
   11       33.358719   0.000000
   12       33.553834   0.000000
 
 -0.3846154E+00  0.2307692E+00  0.3022849E-17  0.9103323E-03
    1      -43.349135   1.000000
    2      -22.056304   1.000000
    3       -3.764017   1.000000
    4       -2.865950   1.000000
    5       -1.902137   1.000000
    6       12.551088   0.000000
    7       15.690799   0.000000
    8       19.785274   0.000000
    9       19.796870   0.000000
   10       27.332112   0.000000
   11       31.952906   0.000000
   12       32.231773   0.000000
 
 -0.3076923E+00  0.2307692E+00  0.2735534E-16  0.9103323E-03
    1      -43.354864   1.000000
    2      -22.112331   1.000000
    3       -3.503318   1.000000
    4       -2.881859   1.000000
    5       -1.766402   1.000000
    6       12.276147   0.000000
    7       15.711184   0.000000
    8       19.857820   0.000000
    9       20.060985   0.000000
   10       28.907184   0.000000
   11       30.102755   0.000000
   12       30.885847   0.000000
 
 -0.2307692E+00  0.2307692E+00 -0.3824074E-17  0.9103323E-03
    1      -43.364697   1.000000
    2      -22.199602   1.000000
    3       -3.262087   1.000000
    4       -2.637310   1.000000
    5       -1.636147   1.000000
    6       11.765200   0.000000
    7       16.136493   0.000000
    8       20.141574   0.000000
    9       20.285397   0.000000
   10       28.512982   0.000000
   11       29.540679   0.000000
   12       30.275575   0.000000
 
 -0.1538462E+00  0.2307692E+00  0.4826320E-16  0.9103323E-03
    1      -43.376584   1.000000
    2      -22.297052   1.000000
    3       -3.082167   1.000000
    4       -2.193497   1.000000
    5       -1.542317   1.000000
    6       11.123310   0.000000
    7       16.940088   0.000000
    8       20.489468   0.000000
    9       20.577071   0.000000
   10       27.438190   0.000000
   11       28.435619   0.000000
   12       30.822136   0.000000
 
 -0.7692308E-01  0.2307692E+00  0.4484007E-16  0.9103323E-03
    1      -43.387596   1.000000
    2      -22.381731   1.000000
    3       -2.884442   1.000000
    4       -1.776112   1.000000
    5       -1.508376   1.000000
    6       10.562042   0.000000
    7       17.831421   0.000000
    8       20.815634   0.000000
    9       21.032731   0.000000
   10       27.080321   0.000000
   11       27.715837   0.000000
   12       29.891907   0.000000
 
  0.0000000E+00  0.3076923E+00  0.1821396E-16  0.9103323E-03
    1      -43.379436   1.000000
    2      -22.330994   1.000000
    3       -3.266894   1.000000
    4       -1.603546   1.000000
    5       -1.603132   1.000000
    6       10.565899   0.000000
    7       17.509531   0.000000
    8       20.376060   0.000000
    9       20.378155   0.000000
   10       28.866920   0.000000
   11       28.985354   0.000000
   12       28.988759   0.000000
 
  0.7692308E-01  0.3076923E+00  0.9123074E-18  0.9103323E-03
    1      -43.382380   1.000000
    2      -22.344950   1.000000
    3       -3.087512   1.000000
    4       -1.702294   1.000000
    5       -1.636864   1.000000
    6       10.704031   0.000000
    7       17.595826   0.000000
    8       20.596692   0.000000
    9       20.642347   0.000000
   10       26.291741   0.000000
   11       29.866383   0.000000
   12       29.978035   0.000000
 
  0.1538462E+00  0.3076923E+00  0.1136702E-16  0.9103323E-03
    1      -43.380848   1.000000
    2      -22.318742   1.000000
    3       -2.992856   1.000000
    4       -1.852007   1.000000
    5       -1.851365   1.000000
    6       11.169183   0.000000
    7       17.668245   0.000000
    8       20.480007   0.000000
    9       20.878259   0.000000
   10       23.777206   0.000000
   11       31.574694   0.000000
   12       31.828253   0.000000
 
  0.2307692E+00  0.3076923E+00 -0.1981242E-16  0.9103323E-03
    1      -43.375362   1.000000
    2      -22.257941   1.000000
    3       -3.127951   1.000000
    4       -2.042960   1.000000
    5       -2.015629   1.000000
    6       11.811741   0.000000
    7       17.807358   0.000000
    8       20.063280   0.000000
    9       21.021375   0.000000
   10       21.833105   0.000000
   11       33.631029   0.000000
   12       34.439262   0.000000
 
  0.3076923E+00  0.3076923E+00 -0.5232546E-17  0.9103323E-03
    1      -43.366994   1.000000
    2      -22.174587   1.000000
    3       -3.470014   1.000000
    4       -2.156557   1.000000
    5       -2.155916   1.000000
    6       12.505357   0.000000
    7       17.598712   0.000000
    8       19.574738   0.000000
    9       21.016364   0.000000
   10       21.018308   0.000000
   11       35.582194   0.000000
   12       37.051753   0.000000
 
  0.3846154E+00  0.3076923E+00 -0.2665941E-16  0.9103323E-03
    1      -43.357840   1.000000
    2      -22.087125   1.000000
    3       -3.816693   1.000000
    4       -2.312674   1.000000
    5       -2.243240   1.000000
    6       13.159205   0.000000
    7       16.837779   0.000000
    8       19.174084   0.000000
    9       20.858742   0.000000
   10       21.490342   0.000000
   11       35.107071   0.000000
   12       35.742787   0.000000
 
  0.4615385E+00  0.3076923E+00 -0.4396101E-16  0.9103323E-03
    1      -43.349921   1.000000
    2      -22.015906   1.000000
    3       -4.028533   1.000000
    4       -2.556563   1.000000
    5       -2.260207   1.000000
    6       13.645921   0.000000
    7       16.095117   0.000000
    8       18.986615   0.000000
    9       20.589644   0.000000
   10       22.552887   0.000000
   11       34.751174   0.000000
   12       35.891532   0.000000
 
 -0.4615385E+00  0.3076923E+00  0.9426677E-16  0.9103323E-03
    1      -43.344973   1.000000
    2      -21.978617   1.000000
    3       -4.039205   1.000000
    4       -2.854998   1.000000
    5       -2.203420   1.000000
    6       13.820356   0.000000
    7       15.571575   0.000000
    8       19.127025   0.000000
    9       20.292397   0.000000
   10       23.819360   0.000000
   11       34.585374   0.000000
   12       35.327307   0.000000
 
 -0.3846154E+00  0.3076923E+00  0.1185986E-15  0.9103323E-03
    1      -43.344228   1.000000
    2      -21.985299   1.000000
    3       -3.829996   1.000000
    4       -3.146236   1.000000
    5       -2.084221   1.000000
    6       13.648320   0.000000
    7       15.247939   0.000000
    8       19.498773   0.000000
    9       20.040310   0.000000
   10       25.284429   0.000000
   11       33.630626   0.000000
   12       33.872930   0.000000
 
 -0.3076923E+00  0.3076923E+00  0.8741980E-16  0.9103323E-03
    1      -43.347774   1.000000
    2      -22.034045   1.000000
    3       -3.431964   1.000000
    4       -3.365301   1.000000
    5       -1.927069   1.000000
    6       13.091967   0.000000
    7       15.279430   0.000000
    8       19.858847   0.000000
    9       19.887311   0.000000
   10       27.027631   0.000000
   11       31.696141   0.000000
   12       32.350077   0.000000
 
 -0.2307692E+00  0.3076923E+00  0.7292424E-18  0.9103323E-03
    1      -43.354864   1.000000
    2      -22.112331   1.000000
    3       -3.503318   1.000000
    4       -2.881859   1.000000
    5       -1.766402   1.000000
    6       12.276146   0.000000
    7       15.711184   0.000000
    8       19.857819   0.000000
    9       20.060985   0.000000
   10       28.907184   0.000000
   11       30.102755   0.000000
   12       30.885847   0.000000
 
 -0.1538462E+00  0.3076923E+00 -0.3044941E-16  0.9103323E-03
    1      -43.363877   1.000000
    2      -22.201000   1.000000
    3       -3.517766   1.000000
    4       -2.312295   1.000000
    5       -1.640240   1.000000
    6       11.452408   0.000000
    7       16.405411   0.000000
    8       19.948160   0.000000
    9       20.108959   0.000000
   10       29.061523   0.000000
   11       29.460243   0.000000
   12       30.805378   0.000000
 
 -0.7692308E-01  0.3076923E+00  0.2163780E-16  0.9103323E-03
    1      -43.372715   1.000000
    2      -22.279419   1.000000
    3       -3.428983   1.000000
    4       -1.844391   1.000000
    5       -1.580553   1.000000
    6       10.832379   0.000000
    7       17.114067   0.000000
    8       20.133627   0.000000
    9       20.149782   0.000000
   10       28.676363   0.000000
   11       28.867906   0.000000
   12       30.899016   0.000000
 
 -0.5551115E-16  0.3846154E+00  0.2276803E-16  0.9103323E-03
    1      -43.366307   1.000000
    2      -22.241085   1.000000
    3       -3.734184   1.000000
    4       -1.651997   1.000000
    5       -1.651631   1.000000
    6       10.641253   0.000000
    7       17.180061   0.000000
    8       19.693378   0.000000
    9       19.695465   0.000000
   10       30.149356   0.000000
   11       30.455239   0.000000
   12       30.458537   0.000000
 
  0.7692308E-01  0.3846154E+00  0.1934417E-16  0.9103323E-03
    1      -43.368393   1.000000
    2      -22.247934   1.000000
    3       -3.591506   1.000000
    4       -1.739856   1.000000
    5       -1.726056   1.000000
    6       10.885917   0.000000
    7       17.051070   0.000000
    8       19.891136   0.000000
    9       19.952447   0.000000
   10       27.800547   0.000000
   11       31.080049   0.000000
   12       31.132199   0.000000
 
  0.1538462E+00  0.3846154E+00  0.2043255E-17  0.9103323E-03
    1      -43.367434   1.000000
    2      -22.219706   1.000000
    3       -3.474906   1.000000
    4       -1.997382   1.000000
    5       -1.894493   1.000000
    6       11.523988   0.000000
    7       16.832778   0.000000
    8       19.916236   0.000000
    9       20.292303   0.000000
   10       25.199898   0.000000
   11       32.327951   0.000000
   12       32.698382   0.000000
 
  0.2307692E+00  0.3846154E+00 -0.1380558E-17  0.9103323E-03
    1      -43.363638   1.000000
    2      -22.162085   1.000000
    3       -3.532327   1.000000
    4       -2.236415   1.000000
    5       -2.076355   1.000000
    6       12.350998   0.000000
    7       16.768462   0.000000
    8       19.630740   0.000000
    9       20.626109   0.000000
   10       23.006316   0.000000
   11       33.952943   0.000000
   12       34.665854   0.000000
 
  0.3076923E+00  0.3846154E+00  0.9073417E-17  0.9103323E-03
    1      -43.357840   1.000000
    2      -22.087125   1.000000
    3       -3.816693   1.000000
    4       -2.312674   1.000000
    5       -2.243240   1.000000
    6       13.159205   0.000000
    7       16.837779   0.000000
    8       19.174084   0.000000
    9       20.858742   0.000000
   10       21.490342   0.000000
   11       35.107071   0.000000
   12       35.742787   0.000000
 
  0.3846154E+00  0.3846154E+00 -0.2061636E-16  0.9103323E-03
    1      -43.351444   1.000000
    2      -22.011700   1.000000
    3       -4.140182   1.000000
    4       -2.360201   1.000000
    5       -2.359508   1.000000
    6       13.846869   0.000000
    7       16.697144   0.000000
    8       18.780331   0.000000
    9       20.930708   0.000000
   10       20.932636   0.000000
   11       34.769722   0.000000