       N       E                     dE             d eps       ncg     rms          ort
SDA:   1    -0.118389341189E+02   -0.11839E+02    0.00000E+00 13188   0.904E-01 0.000E+00
CGA:   2    -0.118833275978E+02   -0.44393E-01   -0.55757E-01 13188   0.202E-01-0.225E-01
CGA:   3    -0.118906902456E+02   -0.73626E-02   -0.71505E-02 13188   0.393E-02 0.762E-03
CGA:   4    -0.118921128795E+02   -0.14226E-02   -0.14411E-02 13188   0.346E-03-0.174E-03
CGA:   5    -0.118922697953E+02   -0.15692E-03   -0.14112E-03 13188   0.820E-04 0.843E-04
CGA:   6    -0.118922990932E+02   -0.29298E-04   -0.28034E-04 13188   0.235E-04 0.486E-04
CGA:   7    -0.118923070688E+02   -0.79756E-05   -0.72027E-05 13188   0.101E-04 0.138E-04
CGA:   8    -0.118923102935E+02   -0.32246E-05   -0.29449E-05 13188   0.549E-05 0.734E-05
CGA:   9    -0.118923114452E+02   -0.11517E-05   -0.12611E-05 13188   0.351E-05 0.438E-05
CGA:  10    -0.118923118969E+02   -0.45174E-06   -0.65251E-06 13188   0.249E-05 0.296E-05
   1 F= -.11892312E+02 E0= -.11892312E+02  d E =-.118923E+02
       N       E                     dE             d eps       ncg     rms          ort
SDA:   1    -0.117863031090E+02    0.10601E+00    0.00000E+00 13188   0.394E+00 0.000E+00
CGA:   2    -0.118936295029E+02   -0.10733E+00   -0.10729E+00 13188   0.181E-01 0.810E-03
CGA:   3    -0.119019745332E+02   -0.83450E-02   -0.83395E-02 13188   0.228E-02 0.167E-04
CGA:   4    -0.119031519890E+02   -0.11775E-02   -0.11681E-02 13188   0.481E-03 0.359E-04
CGA:   5    -0.119034368665E+02   -0.28488E-03   -0.28211E-03 13188   0.611E-04 0.886E-05
CGA:   6    -0.119034687167E+02   -0.31850E-04   -0.33668E-04 13188   0.163E-04-0.713E-05
CGA:   7    -0.119034753873E+02   -0.66706E-05   -0.72269E-05 13188   0.307E-05-0.273E-05
CGA:   8    -0.119034762194E+02   -0.83213E-06   -0.82510E-06 13188   0.429E-06 0.481E-06
   2 F= -.11903476E+02 E0= -.11903476E+02  d E =-.111643E-01
       N       E                     dE             d eps       ncg     rms          ort
