 vasp.5.4.4.18Apr17-6-g9f103f2a35 (build Nov 08 2022 17:27:33) complex          
  
 executed on             LinuxIFC date 2022.11.22  17:16:00
 running on   16 total cores
 distrk:  each k-point on   16 cores,    1 groups
 distr:  one band on NCORES_PER_BAND=   4 cores,    4 groups


--------------------------------------------------------------------------------------------------------


 INCAR:
 POTCAR:    PAW_PBE Li_sv 10Sep2004               
 POTCAR:    PAW_PBE F 08Apr2002                   
 POTCAR:    PAW_PBE Li_sv 10Sep2004               
   VRHFIN =Li: 1s2s2p                                                           
   LEXCH  = PE                                                                  
   EATOM  =   202.7858 eV,   14.9043 Ry                                         
                                                                                
   TITEL  = PAW_PBE Li_sv 10Sep2004                                             
   LULTRA =        F    use ultrasoft PP ?                                      
   IUNSCR =        0    unscreen: 0-lin 1-nonlin 2-no                           
   RPACOR =    0.000    partial core radius                                     
   POMASS =    7.010; ZVAL   =    3.000    mass and valenz                      
   RCORE  =    1.700    outmost cutoff radius                                   
   RWIGS  =    2.050; RWIGS  =    1.085    wigner-seitz radius (au A)           
   ENMAX  =  499.034; ENMIN  =  374.276 eV                                      
   ICORE  =        2    local potential                                         
   LCOR   =        T    correct aug charges                                     
   LPAW   =        T    paw PP                                                  
   EAUG   =  628.945                                                            
   RMAX   =    1.732    core radius for proj-oper                               
   RAUG   =    1.300    factor for augmentation sphere                          
   RDEP   =    1.728    radius for radial grids                                 
   RDEPT  =    1.329    core radius for aug-charge                              
                                                                                
   Atomic configuration                                                         
    4 entries                                                                   
     n  l   j            E        occ.                                          
     1  0  0.50       -51.8549   2.0000                                         
     2  0  0.50        -2.8742   1.0000                                         
     2  1  0.50        -1.3606   0.0000                                         
     3  2  1.50        -1.3606   0.0000                                         
   Description                                                                  
     l       E           TYP  RCUT    TYP  RCUT                                 
     0    -51.8548813     23  1.400                                             
     0     -2.8742052     23  1.700                                             
     1     -1.3605826     23  1.400                                             
     2     -1.3605826     23  1.400                                             
  local pseudopotential read in
  atomic valenz-charges read in
  non local Contribution for L=           0  read in
    real space projection operators read in
  non local Contribution for L=           0  read in
    real space projection operators read in
  non local Contribution for L=           1  read in
    real space projection operators read in
    PAW grid and wavefunctions read in
 
   number of l-projection  operators is LMAX  =           3
   number of lm-projection operators is LMMAX =           5
 
 POTCAR:    PAW_PBE F 08Apr2002                   
   VRHFIN =F: s2p5                                                              
   LEXCH  = PE                                                                  
   EATOM  =   659.6475 eV,   48.4827 Ry                                         
                                                                                
   TITEL  = PAW_PBE F 08Apr2002                                                 
   LULTRA =        F    use ultrasoft PP ?                                      
   IUNSCR =        1    unscreen: 0-lin 1-nonlin 2-no                           
   RPACOR =    1.200    partial core radius                                     
   POMASS =   18.998; ZVAL   =    7.000    mass and valenz                      
   RCORE  =    1.520    outmost cutoff radius                                   
   RWIGS  =    1.500; RWIGS  =    0.794    wigner-seitz radius (au A)           
   ENMAX  =  400.000; ENMIN  =  300.000 eV                                      
   ICORE  =        2    local potential                                         
   LCOR   =        T    correct aug charges                                     
   LPAW   =        T    paw PP                                                  
   EAUG   =  613.614                                                            
   RMAX   =    1.555    core radius for proj-oper                               
   RAUG   =    1.300    factor for augmentation sphere                          
   RDEP   =    1.539    radius for radial grids                                 
   RDEPT  =    1.299    core radius for aug-charge                              
                                                                                
   Atomic configuration                                                         
    4 entries                                                                   
     n  l   j            E        occ.                                          
     1  0  0.50      -663.3661   2.0000                                         
     2  0  0.50       -29.8995   2.0000                                         
     2  1  0.50       -11.1114   5.0000                                         
     3  2  1.50       -10.8847   0.0000                                         
   Description                                                                  
     l       E           TYP  RCUT    TYP  RCUT                                 
     0    -29.8995018     23  1.200                                             
     0     -9.5240782     23  1.200                                             
     1    -11.1113914     23  1.520                                             
     1      1.3605826     23  1.520                                             
     2    -10.8846608      7  1.500                                             
  local pseudopotential read in
  partial core-charges read in
  partial kinetic energy density read in
  atomic valenz-charges read in
  non local Contribution for L=           0  read in
    real space projection operators read in
  non local Contribution for L=           0  read in
    real space projection operators read in
  non local Contribution for L=           1  read in
    real space projection operators read in
  non local Contribution for L=           1  read in
    real space projection operators read in
    PAW grid and wavefunctions read in
 
   number of l-projection  operators is LMAX  =           4
   number of lm-projection operators is LMMAX =           8
 

 ----------------------------------------------------------------------------- 
|                                                                             |
|  ADVICE TO THIS USER RUNNING 'VASP/VAMP'   (HEAR YOUR MASTER'S VOICE ...):  |
|                                                                             |
|      You have a (more or less) 'small supercell' and for smaller cells      |
|      it is recommended  to use the reciprocal-space projection scheme!      |
|      The real space optimization is not  efficient for small cells and it   |
|      is also less accurate ...                                              |
|      Therefore set LREAL=.FALSE. in the  INCAR file                         |
|                                                                             |
 ----------------------------------------------------------------------------- 

 Optimization of the real space projectors (new method)

 maximal supplied QI-value         = 22.11
 optimisation between [QCUT,QGAM] = [ 11.50, 23.22] = [ 37.02,150.92] Ry 
 Optimized for a Real-space Cutoff    1.08 Angstroem

   l    n(q)    QCUT    max X(q) W(low)/X(q) W(high)/X(q)  e(spline) 
   0      7    11.497    10.506    0.36E-04    0.62E-04    0.14E-07
   0      7    11.497     8.367    0.65E-04    0.14E-03    0.28E-07
   1      7    11.497     8.983    0.21E-03    0.43E-03    0.90E-07
 Optimization of the real space projectors (new method)

 maximal supplied QI-value         = 24.76
 optimisation between [QCUT,QGAM] = [ 11.64, 23.27] = [ 37.91,151.63] Ry 
 Optimized for a Real-space Cutoff    1.04 Angstroem

   l    n(q)    QCUT    max X(q) W(low)/X(q) W(high)/X(q)  e(spline) 
   0      7    11.635    14.049    0.77E-04    0.36E-03    0.13E-06
   0      7    11.635     8.945    0.12E-03    0.48E-03    0.17E-06
   1      7    11.635     7.086    0.24E-03    0.44E-03    0.21E-06
   1      7    11.635     6.747    0.23E-03    0.35E-03    0.19E-06
  PAW_PBE Li_sv 10Sep2004               :
 energy of atom  1       EATOM= -202.7858
 kinetic energy error for atom=    0.0130 (will be added to EATOM!!)
  PAW_PBE F 08Apr2002                   :
 energy of atom  2       EATOM= -659.6475
 kinetic energy error for atom=    0.0323 (will be added to EATOM!!)
 
 
 POSCAR: Li1 F1                                  
  positions in direct lattice
  velocities in cartesian coordinates

 METAGGA = R2SCA    LMAXTAU =  6    LMIXTAU =  T

 exchange correlation table for  LEXCH =        8
   RHO(1)=    0.500       N(1)  =     2000
   RHO(2)=  100.500       N(2)  =     4000

 VTST: version 3.2, (02/03/18)

 CHAIN: initializing optimizer
 
 OPT: Using VASP Conjugate-Gradient optimizer
 CHAIN: Read ICHAIN            0
 
 POSCAR: Li1 F1                                  
  positions in direct lattice
  velocities in cartesian coordinates
 


--------------------------------------------------------------------------------------------------------


 ion  position               nearest neighbor table
   1  0.000  0.000  1.000-   2 2.03   2 2.03   2 2.03   2 2.03   2 2.03   2 2.03
   2  0.500  0.500  0.500-   1 2.03   1 2.03   1 2.03   1 2.03   1 2.03   1 2.03
 

IMPORTANT INFORMATION: All symmetrisations will be switched off!
NOSYMM: (Re-)initialisation of all symmetry stuff for point group C_1.

 
 

Automatic generation of k-mesh.
 generate k-points for:   13   13   13
Space group operators:
 irot       det(A)        alpha          n_x          n_y          n_z        tau_x        tau_y        tau_z
    1     1.000000     0.000001     1.000000     0.000000     0.000000     0.000000     0.000000     0.000000
 
 Subroutine IBZKPT returns following result:
 ===========================================
 
 Found   1099 irreducible k-points:
 
 Following reciprocal coordinates:
            Coordinates               Weight
  0.000000  0.000000  0.000000      1.000000
  0.076923 -0.000000  0.000000      2.000000
  0.153846 -0.000000 -0.000000      2.000000
  0.230769  0.000000 -0.000000      2.000000
  0.307692  0.000000 -0.000000      2.000000
  0.384615  0.000000 -0.000000      2.000000
  0.461538  0.000000 -0.000000      2.000000
 -0.000000  0.076923 -0.000000      2.000000
  0.076923  0.076923 -0.000000      2.000000
  0.153846  0.076923 -0.000000      2.000000
  0.230769  0.076923 -0.000000      2.000000
  0.307692  0.076923 -0.000000      2.000000
  0.384615  0.076923 -0.000000      2.000000
  0.461538  0.076923 -0.000000      2.000000
 -0.461538  0.076923  0.000000      2.000000
 -0.384615  0.076923 -0.000000      2.000000
 -0.307692  0.076923  0.000000      2.000000
 -0.230769  0.076923 -0.000000      2.000000
 -0.153846  0.076923 -0.000000      2.000000
 -0.076923  0.076923 -0.000000      2.000000
 -0.000000  0.153846 -0.000000      2.000000
  0.076923  0.153846  0.000000      2.000000
  0.153846  0.153846 -0.000000      2.000000
  0.230769  0.153846 -0.000000      2.000000
  0.307692  0.153846 -0.000000      2.000000
  0.384615  0.153846 -0.000000      2.000000
  0.461538  0.153846 -0.000000      2.000000
 -0.461538  0.153846  0.000000      2.000000
 -0.384615  0.153846  0.000000      2.000000
 -0.307692  0.153846  0.000000      2.000000
 -0.230769  0.153846  0.000000      2.000000
 -0.153846  0.153846 -0.000000      2.000000
 -0.076923  0.153846 -0.000000      2.000000
 -0.000000  0.230769  0.000000      2.000000
  0.076923  0.230769  0.000000      2.000000
  0.153846  0.230769  0.000000      2.000000
  0.230769  0.230769 -0.000000      2.000000
  0.307692  0.230769 -0.000000      2.000000
  0.384615  0.230769 -0.000000      2.000000
  0.461538  0.230769 -0.000000      2.000000
 -0.461538  0.230769  0.000000      2.000000
 -0.384615  0.230769  0.000000      2.000000
 -0.307692  0.230769  0.000000      2.000000
 -0.230769  0.230769 -0.000000      2.000000
 -0.153846  0.230769  0.000000      2.000000
 -0.076923  0.230769  0.000000      2.000000
  0.000000  0.307692  0.000000      2.000000
  0.076923  0.307692  0.000000      2.000000
  0.153846  0.307692  0.000000      2.000000
  0.230769  0.307692 -0.000000      2.000000
  0.307692  0.307692 -0.000000      2.000000
  0.384615  0.307692 -0.000000      2.000000
  0.461538  0.307692 -0.000000      2.000000
 -0.461538  0.307692  0.000000      2.000000
 -0.384615  0.307692  0.000000      2.000000
 -0.307692  0.307692  0.000000      2.000000
 -0.230769  0.307692  0.000000      2.000000
 -0.153846  0.307692 -0.000000      2.000000
 -0.076923  0.307692  0.000000      2.000000
 -0.000000  0.384615  0.000000      2.000000
  0.076923  0.384615  0.000000      2.000000
  0.153846  0.384615  0.000000      2.000000
  0.230769  0.384615 -0.000000      2.000000
  0.307692  0.384615  0.000000      2.000000
  0.384615  0.384615 -0.000000      2.000000
  0.461538  0.384615 -0.000000      2.000000
 -0.461538  0.384615  0.000000      2.000000
 -0.384615  0.384615  0.000000      2.000000
 -0.307692  0.384615  0.000000      2.000000
 -0.230769  0.384615  0.000000      2.000000
 -0.153846  0.384615  0.000000      2.000000
 -0.076923  0.384615  0.000000      2.000000
 -0.000000  0.461538  0.000000      2.000000
  0.076923  0.461538 -0.000000      2.000000
  0.153846  0.461538  0.000000      2.000000
  0.230769  0.461538 -0.000000      2.000000
  0.307692  0.461538 -0.000000      2.000000
  0.384615  0.461538 -0.000000      2.000000
  0.461538  0.461538 -0.000000      2.000000
 -0.461538  0.461538 -0.000000      2.000000
 -0.384615  0.461538  0.000000      2.000000
 -0.307692  0.461538  0.000000      2.000000
 -0.230769  0.461538  0.000000      2.000000
 -0.153846  0.461538 -0.000000      2.000000
 -0.076923  0.461538 -0.000000      2.000000
  0.000000  0.000000  0.076923      2.000000
  0.076923  0.000000  0.076923      2.000000
  0.153846  0.000000  0.076923      2.000000
  0.230769 -0.000000  0.076923      2.000000
  0.307692  0.000000  0.076923      2.000000
  0.384615 -0.000000  0.076923      2.000000
  0.461538 -0.000000  0.076923      2.000000
 -0.461538 -0.000000  0.076923      2.000000
 -0.384615 -0.000000  0.076923      2.000000
 -0.307692 -0.000000  0.076923      2.000000
 -0.230769  0.000000  0.076923      2.000000
 -0.153846 -0.000000  0.076923      2.000000
 -0.076923 -0.000000  0.076923      2.000000
 -0.000000  0.076923  0.076923      2.000000
  0.076923  0.076923  0.076923      2.000000
  0.153846  0.076923  0.076923      2.000000
  0.230769  0.076923  0.076923      2.000000
  0.307692  0.076923  0.076923      2.000000
  0.384615  0.076923  0.076923      2.000000
  0.461538  0.076923  0.076923      2.000000
 -0.461538  0.076923  0.076923      2.000000
 -0.384615  0.076923  0.076923      2.000000
 -0.307692  0.076923  0.076923      2.000000
 -0.230769  0.076923  0.076923      2.000000
 -0.153846  0.076923  0.076923      2.000000
 -0.076923  0.076923  0.076923      2.000000
 -0.000000  0.153846  0.076923      2.000000
  0.076923  0.153846  0.076923      2.000000
  0.153846  0.153846  0.076923      2.000000
  0.230769  0.153846  0.076923      2.000000
  0.307692  0.153846  0.076923      2.000000
  0.384615  0.153846  0.076923      2.000000
  0.461538  0.153846  0.076923      2.000000
 -0.461538  0.153846  0.076923      2.000000
 -0.384615  0.153846  0.076923      2.000000
 -0.307692  0.153846  0.076923      2.000000
 -0.230769  0.153846  0.076923      2.000000
 -0.153846  0.153846  0.076923      2.000000
 -0.076923  0.153846  0.076923      2.000000
  0.000000  0.230769  0.076923      2.000000
  0.076923  0.230769  0.076923      2.000000
  0.153846  0.230769  0.076923      2.000000
  0.230769  0.230769  0.076923      2.000000
  0.307692  0.230769  0.076923      2.000000
  0.384615  0.230769  0.076923      2.000000
  0.461538  0.230769  0.076923      2.000000
 -0.461538  0.230769  0.076923      2.000000
 -0.384615  0.230769  0.076923      2.000000
 -0.307692  0.230769  0.076923      2.000000
 -0.230769  0.230769  0.076923      2.000000
 -0.153846  0.230769  0.076923      2.000000
 -0.076923  0.230769  0.076923      2.000000
 -0.000000  0.307692  0.076923      2.000000
  0.076923  0.307692  0.076923      2.000000
  0.153846  0.307692  0.076923      2.000000
  0.230769  0.307692  0.076923      2.000000
  0.307692  0.307692  0.076923      2.000000
  0.384615  0.307692  0.076923      2.000000
  0.461538  0.307692  0.076923      2.000000
 -0.461538  0.307692  0.076923      2.000000
 -0.384615  0.307692  0.076923      2.000000
 -0.307692  0.307692  0.076923      2.000000
 -0.230769  0.307692  0.076923      2.000000
 -0.153846  0.307692  0.076923      2.000000
 -0.076923  0.307692  0.076923      2.000000
  0.000000  0.384615  0.076923      2.000000
  0.076923  0.384615  0.076923      2.000000
  0.153846  0.384615  0.076923      2.000000
  0.230769  0.384615  0.076923      2.000000
  0.307692  0.384615  0.076923      2.000000
  0.384615  0.384615  0.076923      2.000000
  0.461538  0.384615  0.076923      2.000000
 -0.461538  0.384615  0.076923      2.000000
 -0.384615  0.384615  0.076923      2.000000
 -0.307692  0.384615  0.076923      2.000000
 -0.230769  0.384615  0.076923      2.000000
 -0.153846  0.384615  0.076923      2.000000
 -0.076923  0.384615  0.076923      2.000000
 -0.000000  0.461538  0.076923      2.000000
  0.076923  0.461538  0.076923      2.000000
  0.153846  0.461538  0.076923      2.000000
  0.230769  0.461538  0.076923      2.000000
  0.307692  0.461538  0.076923      2.000000
  0.384615  0.461538  0.076923      2.000000
  0.461538  0.461538  0.076923      2.000000
 -0.461538  0.461538  0.076923      2.000000
 -0.384615  0.461538  0.076923      2.000000
 -0.307692  0.461538  0.076923      2.000000
 -0.230769  0.461538  0.076923      2.000000
 -0.153846  0.461538  0.076923      2.000000
 -0.076923  0.461538  0.076923      2.000000
  0.000000 -0.461538  0.076923      2.000000
  0.076923 -0.461538  0.076923      2.000000
  0.153846 -0.461538  0.076923      2.000000
  0.230769 -0.461538  0.076923      2.000000
  0.307692 -0.461538  0.076923      2.000000
  0.384615 -0.461538  0.076923      2.000000
  0.461538 -0.461538  0.076923      2.000000
 -0.461538 -0.461538  0.076923      2.000000
 -0.384615 -0.461538  0.076923      2.000000
 -0.307692 -0.461538  0.076923      2.000000
 -0.230769 -0.461538  0.076923      2.000000
 -0.153846 -0.461538  0.076923      2.000000
 -0.076923 -0.461538  0.076923      2.000000
  0.000000 -0.384615  0.076923      2.000000
  0.076923 -0.384615  0.076923      2.000000
  0.153846 -0.384615  0.076923      2.000000
  0.230769 -0.384615  0.076923      2.000000
  0.307692 -0.384615  0.076923      2.000000
  0.384615 -0.384615  0.076923      2.000000
  0.461538 -0.384615  0.076923      2.000000
 -0.461538 -0.384615  0.076923      2.000000
 -0.384615 -0.384615  0.076923      2.000000
 -0.307692 -0.384615  0.076923      2.000000
 -0.230769 -0.384615  0.076923      2.000000
 -0.153846 -0.384615  0.076923      2.000000
 -0.076923 -0.384615  0.076923      2.000000
  0.000000 -0.307692  0.076923      2.000000
  0.076923 -0.307692  0.076923      2.000000
  0.153846 -0.307692  0.076923      2.000000
  0.230769 -0.307692  0.076923      2.000000
  0.307692 -0.307692  0.076923      2.000000
  0.384615 -0.307692  0.076923      2.000000
  0.461538 -0.307692  0.076923      2.000000
 -0.461538 -0.307692  0.076923      2.000000
 -0.384615 -0.307692  0.076923      2.000000
 -0.307692 -0.307692  0.076923      2.000000
 -0.230769 -0.307692  0.076923      2.000000
 -0.153846 -0.307692  0.076923      2.000000
 -0.076923 -0.307692  0.076923      2.000000
  0.000000 -0.230769  0.076923      2.000000
  0.076923 -0.230769  0.076923      2.000000
  0.153846 -0.230769  0.076923      2.000000
  0.230769 -0.230769  0.076923      2.000000
  0.307692 -0.230769  0.076923      2.000000
  0.384615 -0.230769  0.076923      2.000000
  0.461538 -0.230769  0.076923      2.000000
 -0.461538 -0.230769  0.076923      2.000000
 -0.384615 -0.230769  0.076923      2.000000
 -0.307692 -0.230769  0.076923      2.000000
 -0.230769 -0.230769  0.076923      2.000000
 -0.153846 -0.230769  0.076923      2.000000
 -0.076923 -0.230769  0.076923      2.000000
  0.000000 -0.153846  0.076923      2.000000
  0.076923 -0.153846  0.076923      2.000000
  0.153846 -0.153846  0.076923      2.000000
  0.230769 -0.153846  0.076923      2.000000
  0.307692 -0.153846  0.076923      2.000000
  0.384615 -0.153846  0.076923      2.000000
  0.461538 -0.153846  0.076923      2.000000
 -0.461538 -0.153846  0.076923      2.000000
 -0.384615 -0.153846  0.076923      2.000000
 -0.307692 -0.153846  0.076923      2.000000
 -0.230769 -0.153846  0.076923      2.000000
 -0.153846 -0.153846  0.076923      2.000000
 -0.076923 -0.153846  0.076923      2.000000
  0.000000 -0.076923  0.076923      2.000000
  0.076923 -0.076923  0.076923      2.000000
  0.153846 -0.076923  0.076923      2.000000
  0.230769 -0.076923  0.076923      2.000000
  0.307692 -0.076923  0.076923      2.000000
  0.384615 -0.076923  0.076923      2.000000
  0.461538 -0.076923  0.076923      2.000000
 -0.461538 -0.076923  0.076923      2.000000
 -0.384615 -0.076923  0.076923      2.000000
 -0.307692 -0.076923  0.076923      2.000000
 -0.230769 -0.076923  0.076923      2.000000
 -0.153846 -0.076923  0.076923      2.000000
 -0.076923 -0.076923  0.076923      2.000000
  0.000000  0.000000  0.153846      2.000000
  0.076923 -0.000000  0.153846      2.000000
  0.153846  0.000000  0.153846      2.000000
  0.230769  0.000000  0.153846      2.000000
  0.307692  0.000000  0.153846      2.000000
  0.384615  0.000000  0.153846      2.000000
  0.461538 -0.000000  0.153846      2.000000
 -0.461538 -0.000000  0.153846      2.000000
 -0.384615  0.000000  0.153846      2.000000
 -0.307692  0.000000  0.153846      2.000000
 -0.230769  0.000000  0.153846      2.000000
 -0.153846 -0.000000  0.153846      2.000000
 -0.076923  0.000000  0.153846      2.000000
  0.000000  0.076923  0.153846      2.000000
  0.076923  0.076923  0.153846      2.000000
  0.153846  0.076923  0.153846      2.000000
  0.230769  0.076923  0.153846      2.000000
  0.307692  0.076923  0.153846      2.000000
  0.384615  0.076923  0.153846      2.000000
  0.461538  0.076923  0.153846      2.000000
 -0.461538  0.076923  0.153846      2.000000
 -0.384615  0.076923  0.153846      2.000000
 -0.307692  0.076923  0.153846      2.000000
 -0.230769  0.076923  0.153846      2.000000
 -0.153846  0.076923  0.153846      2.000000
 -0.076923  0.076923  0.153846      2.000000
 -0.000000  0.153846  0.153846      2.000000
  0.076923  0.153846  0.153846      2.000000
  0.153846  0.153846  0.153846      2.000000
  0.230769  0.153846  0.153846      2.000000
  0.307692  0.153846  0.153846      2.000000
  0.384615  0.153846  0.153846      2.000000
  0.461538  0.153846  0.153846      2.000000
 -0.461538  0.153846  0.153846      2.000000
 -0.384615  0.153846  0.153846      2.000000
 -0.307692  0.153846  0.153846      2.000000
 -0.230769  0.153846  0.153846      2.000000
 -0.153846  0.153846  0.153846      2.000000
 -0.076923  0.153846  0.153846      2.000000
  0.000000  0.230769  0.153846      2.000000
  0.076923  0.230769  0.153846      2.000000
  0.153846  0.230769  0.153846      2.000000
  0.230769  0.230769  0.153846      2.000000
  0.307692  0.230769  0.153846      2.000000
  0.384615  0.230769  0.153846      2.000000
  0.461538  0.230769  0.153846      2.000000
 -0.461538  0.230769  0.153846      2.000000
 -0.384615  0.230769  0.153846      2.000000
 -0.307692  0.230769  0.153846      2.000000
 -0.230769  0.230769  0.153846      2.000000
 -0.153846  0.230769  0.153846      2.000000
 -0.076923  0.230769  0.153846      2.000000
  0.000000  0.307692  0.153846      2.000000
  0.076923  0.307692  0.153846      2.000000
  0.153846  0.307692  0.153846      2.000000
  0.230769  0.307692  0.153846      2.000000
  0.307692  0.307692  0.153846      2.000000
  0.384615  0.307692  0.153846      2.000000
  0.461538  0.307692  0.153846      2.000000
 -0.461538  0.307692  0.153846      2.000000
 -0.384615  0.307692  0.153846      2.000000
 -0.307692  0.307692  0.153846      2.000000
 -0.230769  0.307692  0.153846      2.000000
 -0.153846  0.307692  0.153846      2.000000
 -0.076923  0.307692  0.153846      2.000000
 -0.000000  0.384615  0.153846      2.000000
  0.076923  0.384615  0.153846      2.000000
  0.153846  0.384615  0.153846      2.000000
  0.230769  0.384615  0.153846      2.000000
  0.307692  0.384615  0.153846      2.000000
  0.384615  0.384615  0.153846      2.000000
  0.461538  0.384615  0.153846      2.000000
 -0.461538  0.384615  0.153846      2.000000
 -0.384615  0.384615  0.153846      2.000000
 -0.307692  0.384615  0.153846      2.000000
 -0.230769  0.384615  0.153846      2.000000
 -0.153846  0.384615  0.153846      2.000000
 -0.076923  0.384615  0.153846      2.000000
 -0.000000  0.461538  0.153846      2.000000
  0.076923  0.461538  0.153846      2.000000
  0.153846  0.461538  0.153846      2.000000
  0.230769  0.461538  0.153846      2.000000
  0.307692  0.461538  0.153846      2.000000
  0.384615  0.461538  0.153846      2.000000
  0.461538  0.461538  0.153846      2.000000
 -0.461538  0.461538  0.153846      2.000000
 -0.384615  0.461538  0.153846      2.000000
 -0.307692  0.461538  0.153846      2.000000
 -0.230769  0.461538  0.153846      2.000000
 -0.153846  0.461538  0.153846      2.000000
 -0.076923  0.461538  0.153846      2.000000
  0.000000 -0.461538  0.153846      2.000000
  0.076923 -0.461538  0.153846      2.000000
  0.153846 -0.461538  0.153846      2.000000
  0.230769 -0.461538  0.153846      2.000000
  0.307692 -0.461538  0.153846      2.000000
  0.384615 -0.461538  0.153846      2.000000
  0.461538 -0.461538  0.153846      2.000000
 -0.461538 -0.461538  0.153846      2.000000
 -0.384615 -0.461538  0.153846      2.000000
 -0.307692 -0.461538  0.153846      2.000000
 -0.230769 -0.461538  0.153846      2.000000
 -0.153846 -0.461538  0.153846      2.000000
 -0.076923 -0.461538  0.153846      2.000000
  0.000000 -0.384615  0.153846      2.000000
  0.076923 -0.384615  0.153846      2.000000
  0.153846 -0.384615  0.153846      2.000000
  0.230769 -0.384615  0.153846      2.000000
  0.307692 -0.384615  0.153846      2.000000
  0.384615 -0.384615  0.153846      2.000000
  0.461538 -0.384615  0.153846      2.000000
 -0.461538 -0.384615  0.153846      2.000000
 -0.384615 -0.384615  0.153846      2.000000
 -0.307692 -0.384615  0.153846      2.000000
 -0.230769 -0.384615  0.153846      2.000000
 -0.153846 -0.384615  0.153846      2.000000
 -0.076923 -0.384615  0.153846      2.000000
  0.000000 -0.307692  0.153846      2.000000
  0.076923 -0.307692  0.153846      2.000000
  0.153846 -0.307692  0.153846      2.000000
  0.230769 -0.307692  0.153846      2.000000
  0.307692 -0.307692  0.153846      2.000000
  0.384615 -0.307692  0.153846      2.000000
  0.461538 -0.307692  0.153846      2.000000
 -0.461538 -0.307692  0.153846      2.000000
 -0.384615 -0.307692  0.153846      2.000000
 -0.307692 -0.307692  0.153846      2.000000
 -0.230769 -0.307692  0.153846      2.000000
 -0.153846 -0.307692  0.153846      2.000000
 -0.076923 -0.307692  0.153846      2.000000
  0.000000 -0.230769  0.153846      2.000000
  0.076923 -0.230769  0.153846      2.000000
  0.153846 -0.230769  0.153846      2.000000
  0.230769 -0.230769  0.153846      2.000000
  0.307692 -0.230769  0.153846      2.000000
  0.384615 -0.230769  0.153846      2.000000
  0.461538 -0.230769  0.153846      2.000000
 -0.461538 -0.230769  0.153846      2.000000
 -0.384615 -0.230769  0.153846      2.000000
 -0.307692 -0.230769  0.153846      2.000000
 -0.230769 -0.230769  0.153846      2.000000
 -0.153846 -0.230769  0.153846      2.000000
 -0.076923 -0.230769  0.153846      2.000000
  0.000000 -0.153846  0.153846      2.000000
  0.076923 -0.153846  0.153846      2.000000
  0.153846 -0.153846  0.153846      2.000000
  0.230769 -0.153846  0.153846      2.000000
  0.307692 -0.153846  0.153846      2.000000
  0.384615 -0.153846  0.153846      2.000000
  0.461538 -0.153846  0.153846      2.000000
 -0.461538 -0.153846  0.153846      2.000000
 -0.384615 -0.153846  0.153846      2.000000
 -0.307692 -0.153846  0.153846      2.000000
 -0.230769 -0.153846  0.153846      2.000000
 -0.153846 -0.153846  0.153846      2.000000
 -0.076923 -0.153846  0.153846      2.000000
  0.000000 -0.076923  0.153846      2.000000
  0.076923 -0.076923  0.153846      2.000000
  0.153846 -0.076923  0.153846      2.000000
  0.230769 -0.076923  0.153846      2.000000
  0.307692 -0.076923  0.153846      2.000000
  0.384615 -0.076923  0.153846      2.000000
  0.461538 -0.076923  0.153846      2.000000
 -0.461538 -0.076923  0.153846      2.000000
 -0.384615 -0.076923  0.153846      2.000000
 -0.307692 -0.076923  0.153846      2.000000
 -0.230769 -0.076923  0.153846      2.000000
 -0.153846 -0.076923  0.153846      2.000000
 -0.076923 -0.076923  0.153846      2.000000
  0.000000  0.000000  0.230769      2.000000
  0.076923 -0.000000  0.230769      2.000000
  0.153846 -0.000000  0.230769      2.000000
  0.230769 -0.000000  0.230769      2.000000
  0.307692  0.000000  0.230769      2.000000
  0.384615  0.000000  0.230769      2.000000
  0.461538 -0.000000  0.230769      2.000000
 -0.461538 -0.000000  0.230769      2.000000
 -0.384615  0.000000  0.230769      2.000000
 -0.307692  0.000000  0.230769      2.000000
 -0.230769 -0.000000  0.230769      2.000000
 -0.153846 -0.000000  0.230769      2.000000
 -0.076923  0.000000  0.230769      2.000000
 -0.000000  0.076923  0.230769      2.000000
  0.076923  0.076923  0.230769      2.000000
  0.153846  0.076923  0.230769      2.000000
  0.230769  0.076923  0.230769      2.000000
  0.307692  0.076923  0.230769      2.000000
  0.384615  0.076923  0.230769      2.000000
  0.461538  0.076923  0.230769      2.000000
 -0.461538  0.076923  0.230769      2.000000
 -0.384615  0.076923  0.230769      2.000000
 -0.307692  0.076923  0.230769      2.000000
 -0.230769  0.076923  0.230769      2.000000
 -0.153846  0.076923  0.230769      2.000000
 -0.076923  0.076923  0.230769      2.000000
  0.000000  0.153846  0.230769      2.000000
  0.076923  0.153846  0.230769      2.000000
  0.153846  0.153846  0.230769      2.000000
  0.230769  0.153846  0.230769      2.000000
  0.307692  0.153846  0.230769      2.000000
  0.384615  0.153846  0.230769      2.000000
  0.461538  0.153846  0.230769      2.000000
 -0.461538  0.153846  0.230769      2.000000
 -0.384615  0.153846  0.230769      2.000000
 -0.307692  0.153846  0.230769      2.000000
 -0.230769  0.153846  0.230769      2.000000
 -0.153846  0.153846  0.230769      2.000000
 -0.076923  0.153846  0.230769      2.000000
 -0.000000  0.230769  0.230769      2.000000
  0.076923  0.230769  0.230769      2.000000
  0.153846  0.230769  0.230769      2.000000
  0.230769  0.230769  0.230769      2.000000
  0.307692  0.230769  0.230769      2.000000
  0.384615  0.230769  0.230769      2.000000
  0.461538  0.230769  0.230769      2.000000
 -0.461538  0.230769  0.230769      2.000000
 -0.384615  0.230769  0.230769      2.000000
 -0.307692  0.230769  0.230769      2.000000
 -0.230769  0.230769  0.230769      2.000000
 -0.153846  0.230769  0.230769      2.000000
 -0.076923  0.230769  0.230769      2.000000
 -0.000000  0.307692  0.230769      2.000000
  0.076923  0.307692  0.230769      2.000000
  0.153846  0.307692  0.230769      2.000000
  0.230769  0.307692  0.230769      2.000000
  0.307692  0.307692  0.230769      2.000000
  0.384615  0.307692  0.230769      2.000000
  0.461538  0.307692  0.230769      2.000000
 -0.461538  0.307692  0.230769      2.000000
 -0.384615  0.307692  0.230769      2.000000
 -0.307692  0.307692  0.230769      2.000000
 -0.230769  0.307692  0.230769      2.000000
 -0.153846  0.307692  0.230769      2.000000
 -0.076923  0.307692  0.230769      2.000000
 -0.000000  0.384615  0.230769      2.000000
  0.076923  0.384615  0.230769      2.000000
  0.153846  0.384615  0.230769      2.000000
  0.230769  0.384615  0.230769      2.000000
  0.307692  0.384615  0.230769      2.000000
  0.384615  0.384615  0.230769      2.000000
  0.461538  0.384615  0.230769      2.000000
 -0.461538  0.384615  0.230769      2.000000
 -0.384615  0.384615  0.230769      2.000000
 -0.307692  0.384615  0.230769      2.000000
 -0.230769  0.384615  0.230769      2.000000
 -0.153846  0.384615  0.230769      2.000000
 -0.076923  0.384615  0.230769      2.000000
  0.000000  0.461538  0.230769      2.000000
  0.076923  0.461538  0.230769      2.000000
  0.153846  0.461538  0.230769      2.000000
  0.230769  0.461538  0.230769      2.000000
  0.307692  0.461538  0.230769      2.000000
  0.384615  0.461538  0.230769      2.000000
  0.461538  0.461538  0.230769      2.000000
 -0.461538  0.461538  0.230769      2.000000
 -0.384615  0.461538  0.230769      2.000000
 -0.307692  0.461538  0.230769      2.000000
 -0.230769  0.461538  0.230769      2.000000
 -0.153846  0.461538  0.230769      2.000000
 -0.076923  0.461538  0.230769      2.000000
 -0.000000 -0.461538  0.230769      2.000000
  0.076923 -0.461538  0.230769      2.000000
  0.153846 -0.461538  0.230769      2.000000
  0.230769 -0.461538  0.230769      2.000000
  0.307692 -0.461538  0.230769      2.000000
  0.384615 -0.461538  0.230769      2.000000
  0.461538 -0.461538  0.230769      2.000000
 -0.461538 -0.461538  0.230769      2.000000
 -0.384615 -0.461538  0.230769      2.000000
 -0.307692 -0.461538  0.230769      2.000000
 -0.230769 -0.461538  0.230769      2.000000
 -0.153846 -0.461538  0.230769      2.000000
 -0.076923 -0.461538  0.230769      2.000000
  0.000000 -0.384615  0.230769      2.000000
  0.076923 -0.384615  0.230769      2.000000
  0.153846 -0.384615  0.230769      2.000000
  0.230769 -0.384615  0.230769      2.000000
  0.307692 -0.384615  0.230769      2.000000
  0.384615 -0.384615  0.230769      2.000000
  0.461538 -0.384615  0.230769      2.000000
 -0.461538 -0.384615  0.230769      2.000000
 -0.384615 -0.384615  0.230769      2.000000
 -0.307692 -0.384615  0.230769      2.000000
 -0.230769 -0.384615  0.230769      2.000000
 -0.153846 -0.384615  0.230769      2.000000
 -0.076923 -0.384615  0.230769      2.000000
  0.000000 -0.307692  0.230769      2.000000
  0.076923 -0.307692  0.230769      2.000000
  0.153846 -0.307692  0.230769      2.000000
  0.230769 -0.307692  0.230769      2.000000
  0.307692 -0.307692  0.230769      2.000000
  0.384615 -0.307692  0.230769      2.000000
  0.461538 -0.307692  0.230769      2.000000
 -0.461538 -0.307692  0.230769      2.000000
 -0.384615 -0.307692  0.230769      2.000000
 -0.307692 -0.307692  0.230769      2.000000
 -0.230769 -0.307692  0.230769      2.000000
 -0.153846 -0.307692  0.230769      2.000000
 -0.076923 -0.307692  0.230769      2.000000
  0.000000 -0.230769  0.230769      2.000000
  0.076923 -0.230769  0.230769      2.000000
  0.153846 -0.230769  0.230769      2.000000
  0.230769 -0.230769  0.230769      2.000000
  0.307692 -0.230769  0.230769      2.000000
  0.384615 -0.230769  0.230769      2.000000
  0.461538 -0.230769  0.230769      2.000000
 -0.461538 -0.230769  0.230769      2.000000
 -0.384615 -0.230769  0.230769      2.000000
 -0.307692 -0.230769  0.230769      2.000000
 -0.230769 -0.230769  0.230769      2.000000
 -0.153846 -0.230769  0.230769      2.000000
 -0.076923 -0.230769  0.230769      2.000000
  0.000000 -0.153846  0.230769      2.000000
  0.076923 -0.153846  0.230769      2.000000
  0.153846 -0.153846  0.230769      2.000000
  0.230769 -0.153846  0.230769      2.000000
  0.307692 -0.153846  0.230769      2.000000
  0.384615 -0.153846  0.230769      2.000000
  0.461538 -0.153846  0.230769      2.000000
 -0.461538 -0.153846  0.230769      2.000000
 -0.384615 -0.153846  0.230769      2.000000
 -0.307692 -0.153846  0.230769      2.000000
 -0.230769 -0.153846  0.230769      2.000000
 -0.153846 -0.153846  0.230769      2.000000
 -0.076923 -0.153846  0.230769      2.000000
  0.000000 -0.076923  0.230769      2.000000
  0.076923 -0.076923  0.230769      2.000000
  0.153846 -0.076923  0.230769      2.000000
  0.230769 -0.076923  0.230769      2.000000
  0.307692 -0.076923  0.230769      2.000000
  0.384615 -0.076923  0.230769      2.000000
  0.461538 -0.076923  0.230769      2.000000
 -0.461538 -0.076923  0.230769      2.000000
 -0.384615 -0.076923  0.230769      2.000000
 -0.307692 -0.076923  0.230769      2.000000
 -0.230769 -0.076923  0.230769      2.000000
 -0.153846 -0.076923  0.230769      2.000000
 -0.076923 -0.076923  0.230769      2.000000
  0.000000 -0.000000  0.307692      2.000000
  0.076923 -0.000000  0.307692      2.000000
  0.153846 -0.000000  0.307692      2.000000
  0.230769 -0.000000  0.307692      2.000000
  0.307692  0.000000  0.307692      2.000000
  0.384615 -0.000000  0.307692      2.000000
  0.461538 -0.000000  0.307692      2.000000
 -0.461538 -0.000000  0.307692      2.000000
 -0.384615  0.000000  0.307692      2.000000
 -0.307692  0.000000  0.307692      2.000000
 -0.230769  0.000000  0.307692      2.000000
 -0.153846  0.000000  0.307692      2.000000
 -0.076923 -0.000000  0.307692      2.000000
  0.000000  0.076923  0.307692      2.000000
  0.076923  0.076923  0.307692      2.000000
  0.153846  0.076923  0.307692      2.000000
  0.230769  0.076923  0.307692      2.000000
  0.307692  0.076923  0.307692      2.000000
  0.384615  0.076923  0.307692      2.000000
  0.461538  0.076923  0.307692      2.000000
 -0.461538  0.076923  0.307692      2.000000
 -0.384615  0.076923  0.307692      2.000000
 -0.307692  0.076923  0.307692      2.000000
 -0.230769  0.076923  0.307692      2.000000
 -0.153846  0.076923  0.307692      2.000000
 -0.076923  0.076923  0.307692      2.000000
  0.000000  0.153846  0.307692      2.000000
  0.076923  0.153846  0.307692      2.000000
  0.153846  0.153846  0.307692      2.000000
  0.230769  0.153846  0.307692      2.000000
  0.307692  0.153846  0.307692      2.000000
  0.384615  0.153846  0.307692      2.000000
  0.461538  0.153846  0.307692      2.000000
 -0.461538  0.153846  0.307692      2.000000
 -0.384615  0.153846  0.307692      2.000000
 -0.307692  0.153846  0.307692      2.000000
 -0.230769  0.153846  0.307692      2.000000
 -0.153846  0.153846  0.307692      2.000000
 -0.076923  0.153846  0.307692      2.000000
  0.000000  0.230769  0.307692      2.000000
  0.076923  0.230769  0.307692      2.000000
  0.153846  0.230769  0.307692      2.000000
  0.230769  0.230769  0.307692      2.000000
  0.307692  0.230769  0.307692      2.000000
  0.384615  0.230769  0.307692      2.000000
  0.461538  0.230769  0.307692      2.000000
 -0.461538  0.230769  0.307692      2.000000
 -0.384615  0.230769  0.307692      2.000000
 -0.307692  0.230769  0.307692      2.000000
 -0.230769  0.230769  0.307692      2.000000
 -0.153846  0.230769  0.307692      2.000000
 -0.076923  0.230769  0.307692      2.000000
  0.000000  0.307692  0.307692      2.000000
  0.076923  0.307692  0.307692      2.000000
  0.153846  0.307692  0.307692      2.000000
  0.230769  0.307692  0.307692      2.000000
  0.307692  0.307692  0.307692      2.000000
  0.384615  0.307692  0.307692      2.000000
  0.461538  0.307692  0.307692      2.000000
 -0.461538  0.307692  0.307692      2.000000
 -0.384615  0.307692  0.307692      2.000000
 -0.307692  0.307692  0.307692      2.000000
 -0.230769  0.307692  0.307692      2.000000
 -0.153846  0.307692  0.307692      2.000000
 -0.076923  0.307692  0.307692      2.000000
  0.000000  0.384615  0.307692      2.000000
  0.076923  0.384615  0.307692      2.000000
  0.153846  0.384615  0.307692      2.000000
  0.230769  0.384615  0.307692      2.000000
  0.307692  0.384615  0.307692      2.000000
  0.384615  0.384615  0.307692      2.000000
  0.461538  0.384615  0.307692      2.000000
 -0.461538  0.384615  0.307692      2.000000
 -0.384615  0.384615  0.307692      2.000000
 -0.307692  0.384615  0.307692      2.000000
 -0.230769  0.384615  0.307692      2.000000
 -0.153846  0.384615  0.307692      2.000000
 -0.076923  0.384615  0.307692      2.000000
 -0.000000  0.461538  0.307692      2.000000
  0.076923  0.461538  0.307692      2.000000
  0.153846  0.461538  0.307692      2.000000
  0.230769  0.461538  0.307692      2.000000
  0.307692  0.461538  0.307692      2.000000
  0.384615  0.461538  0.307692      2.000000
  0.461538  0.461538  0.307692      2.000000
 -0.461538  0.461538  0.307692      2.000000
 -0.384615  0.461538  0.307692      2.000000
 -0.307692  0.461538  0.307692      2.000000
 -0.230769  0.461538  0.307692      2.000000
 -0.153846  0.461538  0.307692      2.000000
 -0.076923  0.461538  0.307692      2.000000
  0.000000 -0.461538  0.307692      2.000000
  0.076923 -0.461538  0.307692      2.000000
  0.153846 -0.461538  0.307692      2.000000
  0.230769 -0.461538  0.307692      2.000000
  0.307692 -0.461538  0.307692      2.000000
  0.384615 -0.461538  0.307692      2.000000
  0.461538 -0.461538  0.307692      2.000000
 -0.461538 -0.461538  0.307692      2.000000
 -0.384615 -0.461538  0.307692      2.000000
 -0.307692 -0.461538  0.307692      2.000000
 -0.230769 -0.461538  0.307692      2.000000
 -0.153846 -0.461538  0.307692      2.000000
 -0.076923 -0.461538  0.307692      2.000000
  0.000000 -0.384615  0.307692      2.000000
  0.076923 -0.384615  0.307692      2.000000
  0.153846 -0.384615  0.307692      2.000000
  0.230769 -0.384615  0.307692      2.000000
  0.307692 -0.384615  0.307692      2.000000
  0.384615 -0.384615  0.307692      2.000000
  0.461538 -0.384615  0.307692      2.000000
 -0.461538 -0.384615  0.307692      2.000000
 -0.384615 -0.384615  0.307692      2.000000
 -0.307692 -0.384615  0.307692      2.000000
 -0.230769 -0.384615  0.307692      2.000000
 -0.153846 -0.384615  0.307692      2.000000
 -0.076923 -0.384615  0.307692      2.000000
  0.000000 -0.307692  0.307692      2.000000
  0.076923 -0.307692  0.307692      2.000000
  0.153846 -0.307692  0.307692      2.000000
  0.230769 -0.307692  0.307692      2.000000
  0.307692 -0.307692  0.307692      2.000000
  0.384615 -0.307692  0.307692      2.000000
  0.461538 -0.307692  0.307692      2.000000
 -0.461538 -0.307692  0.307692      2.000000
 -0.384615 -0.307692  0.307692      2.000000
 -0.307692 -0.307692  0.307692      2.000000
 -0.230769 -0.307692  0.307692      2.000000
 -0.153846 -0.307692  0.307692      2.000000
 -0.076923 -0.307692  0.307692      2.000000
  0.000000 -0.230769  0.307692      2.000000
  0.076923 -0.230769  0.307692      2.000000
  0.153846 -0.230769  0.307692      2.000000
  0.230769 -0.230769  0.307692      2.000000
  0.307692 -0.230769  0.307692      2.000000
  0.384615 -0.230769  0.307692      2.000000
  0.461538 -0.230769  0.307692      2.000000
 -0.461538 -0.230769  0.307692      2.000000
 -0.384615 -0.230769  0.307692      2.000000
 -0.307692 -0.230769  0.307692      2.000000
 -0.230769 -0.230769  0.307692      2.000000
 -0.153846 -0.230769  0.307692      2.000000
 -0.076923 -0.230769  0.307692      2.000000
  0.000000 -0.153846  0.307692      2.000000
  0.076923 -0.153846  0.307692      2.000000
  0.153846 -0.153846  0.307692      2.000000
  0.230769 -0.153846  0.307692      2.000000
  0.307692 -0.153846  0.307692      2.000000
  0.384615 -0.153846  0.307692      2.000000
  0.461538 -0.153846  0.307692      2.000000
 -0.461538 -0.153846  0.307692      2.000000
 -0.384615 -0.153846  0.307692      2.000000
 -0.307692 -0.153846  0.307692      2.000000
 -0.230769 -0.153846  0.307692      2.000000
 -0.153846 -0.153846  0.307692      2.000000
 -0.076923 -0.153846  0.307692      2.000000
  0.000000 -0.076923  0.307692      2.000000
  0.076923 -0.076923  0.307692      2.000000
  0.153846 -0.076923  0.307692      2.000000
  0.230769 -0.076923  0.307692      2.000000
  0.307692 -0.076923  0.307692      2.000000
  0.384615 -0.076923  0.307692      2.000000
  0.461538 -0.076923  0.307692      2.000000
 -0.461538 -0.076923  0.307692      2.000000
 -0.384615 -0.076923  0.307692      2.000000
 -0.307692 -0.076923  0.307692      2.000000
 -0.230769 -0.076923  0.307692      2.000000
 -0.153846 -0.076923  0.307692      2.000000
 -0.076923 -0.076923  0.307692      2.000000
  0.000000 -0.000000  0.384615      2.000000
  0.076923 -0.000000  0.384615      2.000000
  0.153846 -0.000000  0.384615      2.000000
  0.230769 -0.000000  0.384615      2.000000
  0.307692  0.000000  0.384615      2.000000
  0.384615 -0.000000  0.384615      2.000000
  0.461538 -0.000000  0.384615      2.000000
 -0.461538 -0.000000  0.384615      2.000000
 -0.384615 -0.000000  0.384615      2.000000
 -0.307692  0.000000  0.384615      2.000000
 -0.230769  0.000000  0.384615      2.000000
 -0.153846 -0.000000  0.384615      2.000000
 -0.076923 -0.000000  0.384615      2.000000
  0.000000  0.076923  0.384615      2.000000
  0.076923  0.076923  0.384615      2.000000
  0.153846  0.076923  0.384615      2.000000
  0.230769  0.076923  0.384615      2.000000
  0.307692  0.076923  0.384615      2.000000
  0.384615  0.076923  0.384615      2.000000
  0.461538  0.076923  0.384615      2.000000
 -0.461538  0.076923  0.384615      2.000000
 -0.384615  0.076923  0.384615      2.000000
 -0.307692  0.076923  0.384615      2.000000
 -0.230769  0.076923  0.384615      2.000000
 -0.153846  0.076923  0.384615      2.000000
 -0.076923  0.076923  0.384615      2.000000
  0.000000  0.153846  0.384615      2.000000
  0.076923  0.153846  0.384615      2.000000
  0.153846  0.153846  0.384615      2.000000
  0.230769  0.153846  0.384615      2.000000
  0.307692  0.153846  0.384615      2.000000
  0.384615  0.153846  0.384615      2.000000
  0.461538  0.153846  0.384615      2.000000
 -0.461538  0.153846  0.384615      2.000000
 -0.384615  0.153846  0.384615      2.000000
 -0.307692  0.153846  0.384615      2.000000
 -0.230769  0.153846  0.384615      2.000000
 -0.153846  0.153846  0.384615      2.000000
 -0.076923  0.153846  0.384615      2.000000
  0.000000  0.230769  0.384615      2.000000
  0.076923  0.230769  0.384615      2.000000
  0.153846  0.230769  0.384615      2.000000
  0.230769  0.230769  0.384615      2.000000
  0.307692  0.230769  0.384615      2.000000
  0.384615  0.230769  0.384615      2.000000
  0.461538  0.230769  0.384615      2.000000
 -0.461538  0.230769  0.384615      2.000000
 -0.384615  0.230769  0.384615      2.000000
 -0.307692  0.230769  0.384615      2.000000
 -0.230769  0.230769  0.384615      2.000000
 -0.153846  0.230769  0.384615      2.000000
 -0.076923  0.230769  0.384615      2.000000
  0.000000  0.307692  0.384615      2.000000
  0.076923  0.307692  0.384615      2.000000
  0.153846  0.307692  0.384615      2.000000
  0.230769  0.307692  0.384615      2.000000
  0.307692  0.307692  0.384615      2.000000
  0.384615  0.307692  0.384615      2.000000
  0.461538  0.307692  0.384615      2.000000
 -0.461538  0.307692  0.384615      2.000000
 -0.384615  0.307692  0.384615      2.000000
 -0.307692  0.307692  0.384615      2.000000
 -0.230769  0.307692  0.384615      2.000000
 -0.153846  0.307692  0.384615      2.000000
 -0.076923  0.307692  0.384615      2.000000
  0.000000  0.384615  0.384615      2.000000
  0.076923  0.384615  0.384615      2.000000
  0.153846  0.384615  0.384615      2.000000
  0.230769  0.384615  0.384615      2.000000
  0.307692  0.384615  0.384615      2.000000
  0.384615  0.384615  0.384615      2.000000
  0.461538  0.384615  0.384615      2.000000
 -0.461538  0.384615  0.384615      2.000000
 -0.384615  0.384615  0.384615      2.000000
 -0.307692  0.384615  0.384615      2.000000
 -0.230769  0.384615  0.384615      2.000000
 -0.153846  0.384615  0.384615      2.000000
 -0.076923  0.384615  0.384615      2.000000
  0.000000  0.461538  0.384615      2.000000
  0.076923  0.461538  0.384615      2.000000
  0.153846  0.461538  0.384615      2.000000
  0.230769  0.461538  0.384615      2.000000
  0.307692  0.461538  0.384615      2.000000
  0.384615  0.461538  0.384615      2.000000
  0.461538  0.461538  0.384615      2.000000
 -0.461538  0.461538  0.384615      2.000000
 -0.384615  0.461538  0.384615      2.000000
 -0.307692  0.461538  0.384615      2.000000
 -0.230769  0.461538  0.384615      2.000000
 -0.153846  0.461538  0.384615      2.000000
 -0.076923  0.461538  0.384615      2.000000
  0.000000 -0.461538  0.384615      2.000000
  0.076923 -0.461538  0.384615      2.000000
  0.153846 -0.461538  0.384615      2.000000
  0.230769 -0.461538  0.384615      2.000000
  0.307692 -0.461538  0.384615      2.000000
  0.384615 -0.461538  0.384615      2.000000
  0.461538 -0.461538  0.384615      2.000000
 -0.461538 -0.461538  0.384615      2.000000
 -0.384615 -0.461538  0.384615      2.000000
 -0.307692 -0.461538  0.384615      2.000000
 -0.230769 -0.461538  0.384615      2.000000
 -0.153846 -0.461538  0.384615      2.000000
 -0.076923 -0.461538  0.384615      2.000000
  0.000000 -0.384615  0.384615      2.000000
  0.076923 -0.384615  0.384615      2.000000
  0.153846 -0.384615  0.384615      2.000000
  0.230769 -0.384615  0.384615      2.000000
  0.307692 -0.384615  0.384615      2.000000
  0.384615 -0.384615  0.384615      2.000000
  0.461538 -0.384615  0.384615      2.000000
 -0.461538 -0.384615  0.384615      2.000000
 -0.384615 -0.384615  0.384615      2.000000
 -0.307692 -0.384615  0.384615      2.000000
 -0.230769 -0.384615  0.384615      2.000000
 -0.153846 -0.384615  0.384615      2.000000
 -0.076923 -0.384615  0.384615      2.000000
  0.000000 -0.307692  0.384615      2.000000
  0.076923 -0.307692  0.384615      2.000000
  0.153846 -0.307692  0.384615      2.000000
  0.230769 -0.307692  0.384615      2.000000
  0.307692 -0.307692  0.384615      2.000000
  0.384615 -0.307692  0.384615      2.000000
  0.461538 -0.307692  0.384615      2.000000
 -0.461538 -0.307692  0.384615      2.000000
 -0.384615 -0.307692  0.384615      2.000000
 -0.307692 -0.307692  0.384615      2.000000
 -0.230769 -0.307692  0.384615      2.000000
 -0.153846 -0.307692  0.384615      2.000000
 -0.076923 -0.307692  0.384615      2.000000
  0.000000 -0.230769  0.384615      2.000000
  0.076923 -0.230769  0.384615      2.000000
  0.153846 -0.230769  0.384615      2.000000
  0.230769 -0.230769  0.384615      2.000000
  0.307692 -0.230769  0.384615      2.000000
  0.384615 -0.230769  0.384615      2.000000
  0.461538 -0.230769  0.384615      2.000000
 -0.461538 -0.230769  0.384615      2.000000
 -0.384615 -0.230769  0.384615      2.000000
 -0.307692 -0.230769  0.384615      2.000000
 -0.230769 -0.230769  0.384615      2.000000
 -0.153846 -0.230769  0.384615      2.000000
 -0.076923 -0.230769  0.384615      2.000000
  0.000000 -0.153846  0.384615      2.000000
  0.076923 -0.153846  0.384615      2.000000
  0.153846 -0.153846  0.384615      2.000000
  0.230769 -0.153846  0.384615      2.000000
  0.307692 -0.153846  0.384615      2.000000
  0.384615 -0.153846  0.384615      2.000000
  0.461538 -0.153846  0.384615      2.000000
 -0.461538 -0.153846  0.384615      2.000000
 -0.384615 -0.153846  0.384615      2.000000
 -0.307692 -0.153846  0.384615      2.000000
 -0.230769 -0.153846  0.384615      2.000000
 -0.153846 -0.153846  0.384615      2.000000
 -0.076923 -0.153846  0.384615      2.000000
  0.000000 -0.076923  0.384615      2.000000
  0.076923 -0.076923  0.384615      2.000000
  0.153846 -0.076923  0.384615      2.000000
  0.230769 -0.076923  0.384615      2.000000
  0.307692 -0.076923  0.384615      2.000000
  0.384615 -0.076923  0.384615      2.000000
  0.461538 -0.076923  0.384615      2.000000
 -0.461538 -0.076923  0.384615      2.000000
 -0.384615 -0.076923  0.384615      2.000000
 -0.307692 -0.076923  0.384615      2.000000
 -0.230769 -0.076923  0.384615      2.000000
 -0.153846 -0.076923  0.384615      2.000000
 -0.076923 -0.076923  0.384615      2.000000
  0.000000  0.000000  0.461538      2.000000
  0.076923 -0.000000  0.461538      2.000000
  0.153846 -0.000000  0.461538      2.000000
  0.230769 -0.000000  0.461538      2.000000
  0.307692  0.000000  0.461538      2.000000
  0.384615 -0.000000  0.461538      2.000000
  0.461538 -0.000000  0.461538      2.000000
 -0.461538 -0.000000  0.461538      2.000000
 -0.384615 -0.000000  0.461538      2.000000
 -0.307692 -0.000000  0.461538      2.000000
 -0.230769 -0.000000  0.461538      2.000000
 -0.153846  0.000000  0.461538      2.000000
 -0.076923  0.000000  0.461538      2.000000
  0.000000  0.076923  0.461538      2.000000
  0.076923  0.076923  0.461538      2.000000
  0.153846  0.076923  0.461538      2.000000
  0.230769  0.076923  0.461538      2.000000
  0.307692  0.076923  0.461538      2.000000
  0.384615  0.076923  0.461538      2.000000
  0.461538  0.076923  0.461538      2.000000
 -0.461538  0.076923  0.461538      2.000000
 -0.384615  0.076923  0.461538      2.000000
 -0.307692  0.076923  0.461538      2.000000
 -0.230769  0.076923  0.461538      2.000000
 -0.153846  0.076923  0.461538      2.000000
 -0.076923  0.076923  0.461538      2.000000
  0.000000  0.153846  0.461538      2.000000
  0.076923  0.153846  0.461538      2.000000
  0.153846  0.153846  0.461538      2.000000
  0.230769  0.153846  0.461538      2.000000
  0.307692  0.153846  0.461538      2.000000
  0.384615  0.153846  0.461538      2.000000
  0.461538  0.153846  0.461538      2.000000
 -0.461538  0.153846  0.461538      2.000000
 -0.384615  0.153846  0.461538      2.000000
 -0.307692  0.153846  0.461538      2.000000
 -0.230769  0.153846  0.461538      2.000000
 -0.153846  0.153846  0.461538      2.000000
 -0.076923  0.153846  0.461538      2.000000
  0.000000  0.230769  0.461538      2.000000
  0.076923  0.230769  0.461538      2.000000
  0.153846  0.230769  0.461538      2.000000
  0.230769  0.230769  0.461538      2.000000
  0.307692  0.230769  0.461538      2.000000
  0.384615  0.230769  0.461538      2.000000
  0.461538  0.230769  0.461538      2.000000
 -0.461538  0.230769  0.461538      2.000000
 -0.384615  0.230769  0.461538      2.000000
 -0.307692  0.230769  0.461538      2.000000
 -0.230769  0.230769  0.461538      2.000000
 -0.153846  0.230769  0.461538      2.000000
 -0.076923  0.230769  0.461538      2.000000
  0.000000  0.307692  0.461538      2.000000
  0.076923  0.307692  0.461538      2.000000
  0.153846  0.307692  0.461538      2.000000
  0.230769  0.307692  0.461538      2.000000
  0.307692  0.307692  0.461538      2.000000
  0.384615  0.307692  0.461538      2.000000
  0.461538  0.307692  0.461538      2.000000
 -0.461538  0.307692  0.461538      2.000000
 -0.384615  0.307692  0.461538      2.000000
 -0.307692  0.307692  0.461538      2.000000
 -0.230769  0.307692  0.461538      2.000000
 -0.153846  0.307692  0.461538      2.000000
 -0.076923  0.307692  0.461538      2.000000
  0.000000  0.384615  0.461538      2.000000
  0.076923  0.384615  0.461538      2.000000
  0.153846  0.384615  0.461538      2.000000
  0.230769  0.384615  0.461538      2.000000
  0.307692  0.384615  0.461538      2.000000
  0.384615  0.384615  0.461538      2.000000
  0.461538  0.384615  0.461538      2.000000
 -0.461538  0.384615  0.461538      2.000000
 -0.384615  0.384615  0.461538      2.000000
 -0.307692  0.384615  0.461538      2.000000
 -0.230769  0.384615  0.461538      2.000000
 -0.153846  0.384615  0.461538      2.000000
 -0.076923  0.384615  0.461538      2.000000
 -0.000000  0.461538  0.461538      2.000000
  0.076923  0.461538  0.461538      2.000000
  0.153846  0.461538  0.461538      2.000000
  0.230769  0.461538  0.461538      2.000000
  0.307692  0.461538  0.461538      2.000000
  0.384615  0.461538  0.461538      2.000000
  0.461538  0.461538  0.461538      2.000000
 -0.461538  0.461538  0.461538      2.000000
 -0.384615  0.461538  0.461538      2.000000
 -0.307692  0.461538  0.461538      2.000000
 -0.230769  0.461538  0.461538      2.000000
 -0.153846  0.461538  0.461538      2.000000
 -0.076923  0.461538  0.461538      2.000000
  0.000000 -0.461538  0.461538      2.000000
  0.076923 -0.461538  0.461538      2.000000
  0.153846 -0.461538  0.461538      2.000000
  0.230769 -0.461538  0.461538      2.000000
  0.307692 -0.461538  0.461538      2.000000
  0.384615 -0.461538  0.461538      2.000000
  0.461538 -0.461538  0.461538      2.000000
 -0.461538 -0.461538  0.461538      2.000000
 -0.384615 -0.461538  0.461538      2.000000
 -0.307692 -0.461538  0.461538      2.000000
 -0.230769 -0.461538  0.461538      2.000000
 -0.153846 -0.461538  0.461538      2.000000
 -0.076923 -0.461538  0.461538      2.000000
  0.000000 -0.384615  0.461538      2.000000
  0.076923 -0.384615  0.461538      2.000000
  0.153846 -0.384615  0.461538      2.000000
  0.230769 -0.384615  0.461538      2.000000
  0.307692 -0.384615  0.461538      2.000000
  0.384615 -0.384615  0.461538      2.000000
  0.461538 -0.384615  0.461538      2.000000
 -0.461538 -0.384615  0.461538      2.000000
 -0.384615 -0.384615  0.461538      2.000000
 -0.307692 -0.384615  0.461538      2.000000
 -0.230769 -0.384615  0.461538      2.000000
 -0.153846 -0.384615  0.461538      2.000000
 -0.076923 -0.384615  0.461538      2.000000
  0.000000 -0.307692  0.461538      2.000000
  0.076923 -0.307692  0.461538      2.000000
  0.153846 -0.307692  0.461538      2.000000
  0.230769 -0.307692  0.461538      2.000000
  0.307692 -0.307692  0.461538      2.000000
  0.384615 -0.307692  0.461538      2.000000
  0.461538 -0.307692  0.461538      2.000000
 -0.461538 -0.307692  0.461538      2.000000
 -0.384615 -0.307692  0.461538      2.000000
 -0.307692 -0.307692  0.461538      2.000000
 -0.230769 -0.307692  0.461538      2.000000
 -0.153846 -0.307692  0.461538      2.000000
 -0.076923 -0.307692  0.461538      2.000000
  0.000000 -0.230769  0.461538      2.000000
  0.076923 -0.230769  0.461538      2.000000
  0.153846 -0.230769  0.461538      2.000000
  0.230769 -0.230769  0.461538      2.000000
  0.307692 -0.230769  0.461538      2.000000
  0.384615 -0.230769  0.461538      2.000000
  0.461538 -0.230769  0.461538      2.000000
 -0.461538 -0.230769  0.461538      2.000000
 -0.384615 -0.230769  0.461538      2.000000
 -0.307692 -0.230769  0.461538      2.000000
 -0.230769 -0.230769  0.461538      2.000000
 -0.153846 -0.230769  0.461538      2.000000
 -0.076923 -0.230769  0.461538      2.000000
  0.000000 -0.153846  0.461538      2.000000
  0.076923 -0.153846  0.461538      2.000000
  0.153846 -0.153846  0.461538      2.000000
  0.230769 -0.153846  0.461538      2.000000
  0.307692 -0.153846  0.461538      2.000000
  0.384615 -0.153846  0.461538      2.000000
  0.461538 -0.153846  0.461538      2.000000
 -0.461538 -0.153846  0.461538      2.000000
 -0.384615 -0.153846  0.461538      2.000000
 -0.307692 -0.153846  0.461538      2.000000
 -0.230769 -0.153846  0.461538      2.000000
 -0.153846 -0.153846  0.461538      2.000000
 -0.076923 -0.153846  0.461538      2.000000
  0.000000 -0.076923  0.461538      2.000000
  0.076923 -0.076923  0.461538      2.000000
  0.153846 -0.076923  0.461538      2.000000
  0.230769 -0.076923  0.461538      2.000000
  0.307692 -0.076923  0.461538      2.000000
  0.384615 -0.076923  0.461538      2.000000
  0.461538 -0.076923  0.461538      2.000000
 -0.461538 -0.076923  0.461538      2.000000
 -0.384615 -0.076923  0.461538      2.000000
 -0.307692 -0.076923  0.461538      2.000000
 -0.230769 -0.076923  0.461538      2.000000
 -0.153846 -0.076923  0.461538      2.000000
 -0.076923 -0.076923  0.461538      2.000000
 
 Following cartesian coordinates:
            Coordinates               Weight
  0.000000  0.000000  0.000000      1.000000
 -0.018958  0.018958  0.018958      2.000000
 -0.037915  0.037915  0.037915      2.000000
 -0.056873  0.056873  0.056873      2.000000
 -0.075831  0.075831  0.075831      2.000000
 -0.094788  0.094788  0.094788      2.000000
 -0.113746  0.113746  0.113746      2.000000
  0.018958 -0.018958  0.018958      2.000000
 -0.000000 -0.000000  0.037915      2.000000
 -0.018958  0.018958  0.056873      2.000000
 -0.037915  0.037915  0.075831      2.000000
 -0.056873  0.056873  0.094788      2.000000
 -0.075831  0.075830  0.113746      2.000000
 -0.094788  0.094788  0.132703      2.000000
  0.132704 -0.132703 -0.094788      2.000000
  0.113746 -0.113746 -0.075831      2.000000
  0.094788 -0.094788 -0.056873      2.000000
  0.075831 -0.075831 -0.037915      2.000000
  0.056873 -0.056873 -0.018958      2.000000
  0.037915 -0.037915  0.000000      2.000000
  0.037915 -0.037915  0.037915      2.000000
  0.018958 -0.018958  0.056873      2.000000
 -0.000000 -0.000000  0.075831      2.000000
 -0.018958  0.018958  0.094788      2.000000
 -0.037915  0.037915  0.113746      2.000000
 -0.056873  0.056873  0.132703      2.000000
 -0.075831  0.075830  0.151661      2.000000
  0.151661 -0.151661 -0.075831      2.000000
  0.132704 -0.132703 -0.056873      2.000000
  0.113746 -0.113746 -0.037915      2.000000
  0.094788 -0.094788 -0.018958      2.000000
  0.075831 -0.075831  0.000000      2.000000
  0.056873 -0.056873  0.018958      2.000000
  0.056873 -0.056873  0.056873      2.000000
  0.037915 -0.037915  0.075831      2.000000
  0.018958 -0.018958  0.094788      2.000000
 -0.000000 -0.000000  0.113746      2.000000
 -0.018958  0.018958  0.132703      2.000000
 -0.037915  0.037915  0.151661      2.000000
 -0.056873  0.056873  0.170619      2.000000
  0.170619 -0.170619 -0.056873      2.000000
  0.151661 -0.151661 -0.037915      2.000000
  0.132704 -0.132703 -0.018958      2.000000
  0.113746 -0.113746  0.000000      2.000000
  0.094788 -0.094788  0.018958      2.000000
  0.075831 -0.075831  0.037915      2.000000
  0.075831 -0.075831  0.075831      2.000000
  0.056873 -0.056873  0.094788      2.000000
  0.037915 -0.037915  0.113746      2.000000
  0.018958 -0.018958  0.132703      2.000000
 -0.000000 -0.000000  0.151661      2.000000
 -0.018958  0.018957  0.170619      2.000000
 -0.037915  0.037915  0.189576      2.000000
  0.189576 -0.189576 -0.037915      2.000000
  0.170619 -0.170619 -0.018958      2.000000
  0.151661 -0.151661  0.000000      2.000000
  0.132703 -0.132704  0.018958      2.000000
  0.113746 -0.113746  0.037915      2.000000
  0.094788 -0.094788  0.056873      2.000000
  0.094788 -0.094788  0.094788      2.000000
  0.075830 -0.075831  0.113746      2.000000
  0.056873 -0.056873  0.132703      2.000000
  0.037915 -0.037915  0.151661      2.000000
  0.018957 -0.018958  0.170619      2.000000
 -0.000000 -0.000000  0.189576      2.000000
 -0.018958  0.018957  0.208534      2.000000
  0.208534 -0.208534 -0.018958      2.000000
  0.189576 -0.189576  0.000000      2.000000
  0.170619 -0.170619  0.018958      2.000000
  0.151661 -0.151661  0.037915      2.000000
  0.132703 -0.132704  0.056873      2.000000
  0.113746 -0.113746  0.075831      2.000000
  0.113746 -0.113746  0.113746      2.000000
  0.094788 -0.094788  0.132703      2.000000
  0.075830 -0.075831  0.151661      2.000000
  0.056873 -0.056873  0.170619      2.000000
  0.037915 -0.037915  0.189576      2.000000
  0.018957 -0.018958  0.208534      2.000000
 -0.000000 -0.000000  0.227492      2.000000
  0.227492 -0.227492  0.000000      2.000000
  0.208534 -0.208534  0.018958      2.000000
  0.189576 -0.189576  0.037915      2.000000
  0.170619 -0.170619  0.056873      2.000000
  0.151661 -0.151661  0.075831      2.000000
  0.132703 -0.132704  0.094788      2.000000
  0.018958  0.018958 -0.018958      2.000000
 -0.000000  0.037915 -0.000000      2.000000
 -0.018958  0.056873  0.018958      2.000000
 -0.037915  0.075831  0.037915      2.000000
 -0.056873  0.094788  0.056873      2.000000
 -0.075831  0.113746  0.075830      2.000000
 -0.094788  0.132703  0.094788      2.000000
  0.132704 -0.094788 -0.132703      2.000000
  0.113746 -0.075831 -0.113746      2.000000
  0.094788 -0.056873 -0.094788      2.000000
  0.075831 -0.037915 -0.075831      2.000000
  0.056873 -0.018958 -0.056873      2.000000
  0.037915 -0.000000 -0.037915      2.000000
  0.037915 -0.000000 -0.000000      2.000000
  0.018958  0.018958  0.018958      2.000000
 -0.000000  0.037915  0.037915      2.000000
 -0.018958  0.056873  0.056873      2.000000
 -0.037915  0.075830  0.075830      2.000000
 -0.056873  0.094788  0.094788      2.000000
 -0.075831  0.113746  0.113746      2.000000
  0.151661 -0.113746 -0.113746      2.000000
  0.132704 -0.094788 -0.094788      2.000000
  0.113746 -0.075831 -0.075831      2.000000
  0.094788 -0.056873 -0.056873      2.000000
  0.075831 -0.037915 -0.037915      2.000000
  0.056873 -0.018958 -0.018958      2.000000
  0.056873 -0.018958  0.018958      2.000000
  0.037915 -0.000000  0.037915      2.000000
  0.018958  0.018958  0.056873      2.000000
 -0.000000  0.037915  0.075830      2.000000
 -0.018958  0.056873  0.094788      2.000000
 -0.037915  0.075830  0.113746      2.000000
 -0.056873  0.094788  0.132703      2.000000
  0.170619 -0.132703 -0.094788      2.000000
  0.151661 -0.113746 -0.075831      2.000000
  0.132704 -0.094788 -0.056873      2.000000
  0.113746 -0.075831 -0.037915      2.000000
  0.094788 -0.056873 -0.018958      2.000000
  0.075831 -0.037915 -0.000000      2.000000
  0.075831 -0.037915  0.037915      2.000000
  0.056873 -0.018958  0.056873      2.000000
  0.037915 -0.000000  0.075830      2.000000
  0.018958  0.018958  0.094788      2.000000
 -0.000000  0.037915  0.113746      2.000000
 -0.018958  0.056873  0.132703      2.000000
 -0.037915  0.075830  0.151661      2.000000
  0.189576 -0.151661 -0.075831      2.000000
  0.170619 -0.132703 -0.056873      2.000000
  0.151661 -0.113746 -0.037915      2.000000
  0.132703 -0.094788 -0.018958      2.000000
  0.113746 -0.075831 -0.000000      2.000000
  0.094788 -0.056873  0.018958      2.000000
  0.094788 -0.056873  0.056873      2.000000
  0.075830 -0.037915  0.075830      2.000000
  0.056873 -0.018958  0.094788      2.000000
  0.037915 -0.000000  0.113746      2.000000
  0.018957  0.018957  0.132703      2.000000
 -0.000000  0.037915  0.151661      2.000000
 -0.018958  0.056873  0.170619      2.000000
  0.208534 -0.170619 -0.056873      2.000000
  0.189576 -0.151661 -0.037915      2.000000
  0.170619 -0.132704 -0.018958      2.000000
  0.151661 -0.113746 -0.000000      2.000000
  0.132703 -0.094788  0.018958      2.000000
  0.113746 -0.075831  0.037915      2.000000
  0.113746 -0.075831  0.075830      2.000000
  0.094788 -0.056873  0.094788      2.000000
  0.075830 -0.037915  0.113746      2.000000
  0.056873 -0.018958  0.132703      2.000000
  0.037915 -0.000000  0.151661      2.000000
  0.018957  0.018957  0.170619      2.000000
 -0.000000  0.037915  0.189576      2.000000
  0.227492 -0.189576 -0.037915      2.000000
  0.208534 -0.170619 -0.018958      2.000000
  0.189576 -0.151661 -0.000000      2.000000
  0.170619 -0.132704  0.018958      2.000000
  0.151661 -0.113746  0.037915      2.000000
  0.132703 -0.094788  0.056873      2.000000
  0.132703 -0.094788  0.094788      2.000000
  0.113746 -0.075831  0.113746      2.000000
  0.094788 -0.056873  0.132703      2.000000
  0.075830 -0.037915  0.151661      2.000000
  0.056873 -0.018958  0.170619      2.000000
  0.037915 -0.000000  0.189576      2.000000
  0.018957  0.018957  0.208534      2.000000
  0.246449 -0.208534 -0.018958      2.000000
  0.227492 -0.189576 -0.000000      2.000000
  0.208534 -0.170619  0.018958      2.000000
  0.189576 -0.151661  0.037915      2.000000
  0.170619 -0.132704  0.056873      2.000000
  0.151661 -0.113746  0.075830      2.000000
 -0.094788  0.132704 -0.132703      2.000000
 -0.113746  0.151661 -0.113746      2.000000
 -0.132703  0.170619 -0.094788      2.000000
 -0.151661  0.189576 -0.075831      2.000000
 -0.170619  0.208534 -0.056873      2.000000
 -0.189576  0.227492 -0.037915      2.000000
 -0.208534  0.246449 -0.018958      2.000000
  0.018958  0.018958 -0.246449      2.000000
  0.000000  0.037915 -0.227492      2.000000
 -0.018957  0.056873 -0.208534      2.000000
 -0.037915  0.075831 -0.189576      2.000000
 -0.056873  0.094788 -0.170619      2.000000
 -0.075830  0.113746 -0.151661      2.000000
 -0.075831  0.113746 -0.113746      2.000000
 -0.094788  0.132704 -0.094788      2.000000
 -0.113746  0.151661 -0.075831      2.000000
 -0.132703  0.170619 -0.056873      2.000000
 -0.151661  0.189576 -0.037915      2.000000
 -0.170619  0.208534 -0.018958      2.000000
 -0.189576  0.227492 -0.000000      2.000000
  0.037915  0.000000 -0.227492      2.000000
  0.018958  0.018958 -0.208534      2.000000
  0.000000  0.037915 -0.189576      2.000000
 -0.018958  0.056873 -0.170619      2.000000
 -0.037915  0.075831 -0.151661      2.000000
 -0.056873  0.094788 -0.132703      2.000000
 -0.056873  0.094788 -0.094788      2.000000
 -0.075831  0.113746 -0.075831      2.000000
 -0.094788  0.132704 -0.056873      2.000000
 -0.113746  0.151661 -0.037915      2.000000
 -0.132704  0.170619 -0.018958      2.000000
 -0.151661  0.189576 -0.000000      2.000000
 -0.170619  0.208534  0.018958      2.000000
  0.056873 -0.018957 -0.208534      2.000000
  0.037915  0.000000 -0.189576      2.000000
  0.018958  0.018958 -0.170619      2.000000
  0.000000  0.037915 -0.151661      2.000000
 -0.018958  0.056873 -0.132703      2.000000
 -0.037915  0.075831 -0.113746      2.000000
 -0.037915  0.075831 -0.075831      2.000000
 -0.056873  0.094788 -0.056873      2.000000
 -0.075831  0.113746 -0.037915      2.000000
 -0.094788  0.132703 -0.018958      2.000000
 -0.113746  0.151661 -0.000000      2.000000
 -0.132704  0.170619  0.018958      2.000000
 -0.151661  0.189576  0.037915      2.000000
  0.075831 -0.037915 -0.189576      2.000000
  0.056873 -0.018958 -0.170619      2.000000
  0.037915  0.000000 -0.151661      2.000000
  0.018958  0.018958 -0.132703      2.000000
  0.000000  0.037915 -0.113746      2.000000
 -0.018958  0.056873 -0.094788      2.000000
 -0.018958  0.056873 -0.056873      2.000000
 -0.037915  0.075831 -0.037915      2.000000
 -0.056873  0.094788 -0.018958      2.000000
 -0.075831  0.113746 -0.000000      2.000000
 -0.094788  0.132703  0.018958      2.000000
 -0.113746  0.151661  0.037915      2.000000
 -0.132704  0.170619  0.056873      2.000000
  0.094788 -0.056873 -0.170619      2.000000
  0.075831 -0.037915 -0.151661      2.000000
  0.056873 -0.018958 -0.132703      2.000000
  0.037915  0.000000 -0.113746      2.000000
  0.018958  0.018958 -0.094788      2.000000
  0.000000  0.037915 -0.075831      2.000000
 -0.000000  0.037915 -0.037915      2.000000
 -0.018958  0.056873 -0.018958      2.000000
 -0.037915  0.075831 -0.000000      2.000000
 -0.056873  0.094788  0.018958      2.000000
 -0.075831  0.113746  0.037915      2.000000
 -0.094788  0.132703  0.056873      2.000000
 -0.113746  0.151661  0.075830      2.000000
  0.113746 -0.075830 -0.151661      2.000000
  0.094788 -0.056873 -0.132703      2.000000
  0.075831 -0.037915 -0.113746      2.000000
  0.056873 -0.018958 -0.094788      2.000000
  0.037915  0.000000 -0.075831      2.000000
  0.018958  0.018958 -0.056873      2.000000
  0.037915  0.037915 -0.037915      2.000000
  0.018958  0.056873 -0.018958      2.000000
 -0.000000  0.075831 -0.000000      2.000000
 -0.018958  0.094788  0.018958      2.000000
 -0.037915  0.113746  0.037915      2.000000
 -0.056873  0.132703  0.056873      2.000000
 -0.075831  0.151661  0.075830      2.000000
  0.151661 -0.075831 -0.151661      2.000000
  0.132704 -0.056873 -0.132703      2.000000
  0.113746 -0.037915 -0.113746      2.000000
  0.094788 -0.018958 -0.094788      2.000000
  0.075831 -0.000000 -0.075831      2.000000
  0.056873  0.018958 -0.056873      2.000000
  0.056873  0.018958 -0.018958      2.000000
  0.037915  0.037915 -0.000000      2.000000
  0.018958  0.056873  0.018958      2.000000
 -0.000000  0.075830  0.037915      2.000000
 -0.018958  0.094788  0.056873      2.000000
 -0.037915  0.113746  0.075830      2.000000
 -0.056873  0.132703  0.094788      2.000000
  0.170619 -0.094788 -0.132703      2.000000
  0.151661 -0.075831 -0.113746      2.000000
  0.132704 -0.056873 -0.094788      2.000000
  0.113746 -0.037915 -0.075831      2.000000
  0.094788 -0.018958 -0.056873      2.000000
  0.075831 -0.000000 -0.037915      2.000000
  0.075831 -0.000000 -0.000000      2.000000
  0.056873  0.018958  0.018958      2.000000
  0.037915  0.037915  0.037915      2.000000
  0.018958  0.056873  0.056873      2.000000
 -0.000000  0.075830  0.075830      2.000000
 -0.018958  0.094788  0.094788      2.000000
 -0.037915  0.113746  0.113746      2.000000
  0.189576 -0.113746 -0.113746      2.000000
  0.170619 -0.094788 -0.094788      2.000000
  0.151661 -0.075831 -0.075831      2.000000
  0.132703 -0.056873 -0.056873      2.000000
  0.113746 -0.037915 -0.037915      2.000000
  0.094788 -0.018958 -0.018958      2.000000
  0.094788 -0.018958  0.018958      2.000000
  0.075830 -0.000000  0.037915      2.000000
  0.056873  0.018958  0.056873      2.000000
  0.037915  0.037915  0.075830      2.000000
  0.018957  0.056873  0.094788      2.000000
 -0.000000  0.075830  0.113746      2.000000
 -0.018958  0.094788  0.132703      2.000000
  0.208534 -0.132703 -0.094788      2.000000
  0.189576 -0.113746 -0.075831      2.000000
  0.170619 -0.094788 -0.056873      2.000000
  0.151661 -0.075831 -0.037915      2.000000
  0.132703 -0.056873 -0.018958      2.000000
  0.113746 -0.037915 -0.000000      2.000000
  0.113746 -0.037915  0.037915      2.000000
  0.094788 -0.018958  0.056873      2.000000
  0.075830 -0.000000  0.075830      2.000000
  0.056873  0.018957  0.094788      2.000000
  0.037915  0.037915  0.113746      2.000000
  0.018957  0.056873  0.132703      2.000000
 -0.000000  0.075830  0.151661      2.000000
  0.227492 -0.151661 -0.075831      2.000000
  0.208534 -0.132704 -0.056873      2.000000
  0.189576 -0.113746 -0.037915      2.000000
  0.170619 -0.094788 -0.018958      2.000000
  0.151661 -0.075831 -0.000000      2.000000
  0.132703 -0.056873  0.018958      2.000000
  0.132703 -0.056873  0.056873      2.000000
  0.113746 -0.037915  0.075830      2.000000
  0.094788 -0.018958  0.094788      2.000000
  0.075830 -0.000000  0.113746      2.000000
  0.056873  0.018957  0.132703      2.000000
  0.037915  0.037915  0.151661      2.000000
  0.018957  0.056873  0.170619      2.000000
  0.246449 -0.170619 -0.056873      2.000000
  0.227492 -0.151661 -0.037915      2.000000
  0.208534 -0.132704 -0.018958      2.000000
  0.189576 -0.113746 -0.000000      2.000000
  0.170619 -0.094788  0.018958      2.000000
  0.151661 -0.075831  0.037915      2.000000
  0.151661 -0.075831  0.075830      2.000000
  0.132703 -0.056873  0.094788      2.000000
  0.113746 -0.037915  0.113746      2.000000
  0.094788 -0.018958  0.132703      2.000000
  0.075830 -0.000000  0.151661      2.000000
  0.056873  0.018957  0.170619      2.000000
  0.037915  0.037915  0.189576      2.000000
  0.265407 -0.189576 -0.037915      2.000000
  0.246449 -0.170619 -0.018958      2.000000
  0.227492 -0.151661 -0.000000      2.000000
  0.208534 -0.132704  0.018958      2.000000
  0.189576 -0.113746  0.037915      2.000000
  0.170619 -0.094788  0.056873      2.000000
 -0.075831  0.151661 -0.151661      2.000000
 -0.094788  0.170619 -0.132703      2.000000
 -0.113746  0.189576 -0.113746      2.000000
 -0.132703  0.208534 -0.094788      2.000000
 -0.151661  0.227492 -0.075831      2.000000
 -0.170619  0.246449 -0.056873      2.000000
 -0.189576  0.265407 -0.037915      2.000000
  0.037915  0.037915 -0.265407      2.000000
  0.018958  0.056873 -0.246449      2.000000
  0.000000  0.075831 -0.227492      2.000000
 -0.018958  0.094788 -0.208534      2.000000
 -0.037915  0.113746 -0.189576      2.000000
 -0.056873  0.132704 -0.170619      2.000000
 -0.056873  0.132704 -0.132703      2.000000
 -0.075831  0.151661 -0.113746      2.000000
 -0.094788  0.170619 -0.094788      2.000000
 -0.113746  0.189576 -0.075831      2.000000
 -0.132704  0.208534 -0.056873      2.000000
 -0.151661  0.227492 -0.037915      2.000000
 -0.170619  0.246449 -0.018958      2.000000
  0.056873  0.018958 -0.246449      2.000000
  0.037915  0.037915 -0.227492      2.000000
  0.018958  0.056873 -0.208534      2.000000
  0.000000  0.075831 -0.189576      2.000000
 -0.018958  0.094788 -0.170619      2.000000
 -0.037915  0.113746 -0.151661      2.000000
 -0.037915  0.113746 -0.113746      2.000000
 -0.056873  0.132704 -0.094788      2.000000
 -0.075831  0.151661 -0.075831      2.000000
 -0.094788  0.170619 -0.056873      2.000000
 -0.113746  0.189576 -0.037915      2.000000
 -0.132704  0.208534 -0.018958      2.000000
 -0.151661  0.227492 -0.000000      2.000000
  0.075831  0.000000 -0.227492      2.000000
  0.056873  0.018958 -0.208534      2.000000
  0.037915  0.037915 -0.189576      2.000000
  0.018958  0.056873 -0.170619      2.000000
  0.000000  0.075831 -0.151661      2.000000
 -0.018958  0.094788 -0.132703      2.000000
 -0.018958  0.094788 -0.094788      2.000000
 -0.037915  0.113746 -0.075831      2.000000
 -0.056873  0.132703 -0.056873      2.000000
 -0.075831  0.151661 -0.037915      2.000000
 -0.094788  0.170619 -0.018958      2.000000
 -0.113746  0.189576 -0.000000      2.000000
 -0.132704  0.208534  0.018958      2.000000
  0.094788 -0.018958 -0.208534      2.000000
  0.075831  0.000000 -0.189576      2.000000
  0.056873  0.018958 -0.170619      2.000000
  0.037915  0.037915 -0.151661      2.000000
  0.018958  0.056873 -0.132703      2.000000
  0.000000  0.075831 -0.113746      2.000000
 -0.000000  0.075831 -0.075831      2.000000
 -0.018958  0.094788 -0.056873      2.000000
 -0.037915  0.113746 -0.037915      2.000000
 -0.056873  0.132703 -0.018958      2.000000
 -0.075831  0.151661 -0.000000      2.000000
 -0.094788  0.170619  0.018958      2.000000
 -0.113746  0.189576  0.037915      2.000000
  0.113746 -0.037915 -0.189576      2.000000
  0.094788 -0.018958 -0.170619      2.000000
  0.075831  0.000000 -0.151661      2.000000
  0.056873  0.018958 -0.132703      2.000000
  0.037915  0.037915 -0.113746      2.000000
  0.018958  0.056873 -0.094788      2.000000
  0.018958  0.056873 -0.056873      2.000000
 -0.000000  0.075831 -0.037915      2.000000
 -0.018958  0.094788 -0.018958      2.000000
 -0.037915  0.113746 -0.000000      2.000000
 -0.056873  0.132703  0.018958      2.000000
 -0.075831  0.151661  0.037915      2.000000
 -0.094788  0.170619  0.056873      2.000000
  0.132704 -0.056873 -0.170619      2.000000
  0.113746 -0.037915 -0.151661      2.000000
  0.094788 -0.018958 -0.132703      2.000000
  0.075831  0.000000 -0.113746      2.000000
  0.056873  0.018958 -0.094788      2.000000
  0.037915  0.037915 -0.075831      2.000000
  0.056873  0.056873 -0.056873      2.000000
  0.037915  0.075831 -0.037915      2.000000
  0.018958  0.094788 -0.018958      2.000000
 -0.000000  0.113746 -0.000000      2.000000
[...]
      7      15.7004      0.00000
      8      19.1059      0.00000
      9      19.5193      0.00000
     10      26.1598      0.00000
     11      30.7820      0.00000
     12      34.0755      0.00000

 k-point  1074 :       0.0000   -0.1538    0.4615
  band No.  band energies     occupation 
      1     -43.5593      2.00000
      2     -22.2132      2.00000
      3      -4.0015      2.00000
      4      -2.3892      2.00000
      5      -1.9656      2.00000
      6      11.3102      0.00000
      7      15.9666      0.00000
      8      19.2201      0.00000
      9      19.2235      0.00000
     10      27.6711      0.00000
     11      31.5954      0.00000
     12      31.7624      0.00000

 k-point  1075 :       0.0769   -0.1538    0.4615
  band No.  band energies     occupation 
      1     -43.5566      2.00000
      2     -22.1735      2.00000
      3      -3.9272      2.00000
      4      -2.7432      2.00000
      5      -2.0344      2.00000
      6      11.9330      0.00000
      7      15.5930      0.00000
      8      19.1379      0.00000
      9      19.4131      0.00000
     10      27.4986      0.00000
     11      29.6027      0.00000
     12      33.6995      0.00000

 k-point  1076 :       0.1538   -0.1538    0.4615
  band No.  band energies     occupation 
      1     -43.5534      2.00000
      2     -22.1241      2.00000
      3      -3.8301      2.00000
      4      -3.1208      2.00000
      5      -2.1643      2.00000
      6      12.8351      0.00000
      7      15.2395      0.00000
      8      18.8070      0.00000
      9      19.5575      0.00000
     10      26.9436      0.00000
     11      28.7945      0.00000
     12      36.0761      0.00000

 k-point  1077 :       0.2308   -0.1538    0.4615
  band No.  band energies     occupation 
      1     -43.5507      2.00000
      2     -22.0764      2.00000
      3      -3.9330      2.00000
      4      -3.2261      2.00000
      5      -2.3138      2.00000
      6      13.8014      0.00000
      7      15.0690      0.00000
      8      18.1829      0.00000
      9      19.7059      0.00000
     10      25.1996      0.00000
     11      30.2456      0.00000
     12      35.2724      0.00000

 k-point  1078 :       0.3077   -0.1538    0.4615
  band No.  band energies     occupation 
      1     -43.5489      2.00000
      2     -22.0410      2.00000
      3      -4.1983      2.00000
      4      -3.0697      2.00000
      5      -2.4311      2.00000
      6      14.4279      0.00000
      7      15.1793      0.00000
      8      17.6719      0.00000
      9      19.8737      0.00000
     10      23.6447      0.00000
     11      32.3652      0.00000
     12      34.5217      0.00000

 k-point  1079 :       0.3846   -0.1538    0.4615
  band No.  band energies     occupation 
      1     -43.5485      2.00000
      2     -22.0271      2.00000
      3      -4.3723      2.00000
      4      -2.9120      2.00000
      5      -2.4823      2.00000
      6      14.6046      0.00000
      7      15.1899      0.00000
      8      17.7843      0.00000
      9      20.0616      0.00000
     10      22.4221      0.00000
     11      34.0632      0.00000
     12      34.9132      0.00000

 k-point  1080 :       0.4615   -0.1538    0.4615
  band No.  band energies     occupation 
      1     -43.5496      2.00000
      2     -22.0381      2.00000
      3      -4.3811      2.00000
      4      -2.8292      2.00000
      5      -2.4761      2.00000
      6      14.3597      0.00000
      7      15.2825      0.00000
      8      18.0814      0.00000
      9      20.1880      0.00000
     10      21.8937      0.00000
     11      34.0390      0.00000
     12      37.4434      0.00000

 k-point  1081 :      -0.4615   -0.1538    0.4615
  band No.  band energies     occupation 
      1     -43.5519      2.00000
      2     -22.0707      2.00000
      3      -4.2246      2.00000
      4      -2.8369      2.00000
      5      -2.4214      2.00000
      6      13.9068      0.00000
      7      15.4580      0.00000
      8      18.1466      0.00000
      9      20.0616      0.00000
     10      22.5095      0.00000
     11      33.4188      0.00000
     12      35.6829      0.00000

 k-point  1082 :      -0.3846   -0.1538    0.4615
  band No.  band energies     occupation 
      1     -43.5549      2.00000
      2     -22.1173      2.00000
      3      -3.9578      2.00000
      4      -2.9344      2.00000
      5      -2.2898      2.00000
      6      13.3416      0.00000
      7      15.4106      0.00000
      8      18.4359      0.00000
      9      19.8923      0.00000
     10      23.8349      0.00000
     11      31.6095      0.00000
     12      36.0346      0.00000

 k-point  1083 :      -0.3077   -0.1538    0.4615
  band No.  band energies     occupation 
      1     -43.5579      2.00000
      2     -22.1668      2.00000
      3      -3.7405      2.00000
      4      -2.9690      2.00000
      5      -2.1122      2.00000
      6      12.5922      0.00000
      7      15.3915      0.00000
      8      18.9506      0.00000
      9      19.7287      0.00000
     10      25.5982      0.00000
     11      30.0428      0.00000
     12      35.1667      0.00000

 k-point  1084 :      -0.2308   -0.1538    0.4615
  band No.  band energies     occupation 
      1     -43.5602      2.00000
      2     -22.2083      2.00000
      3      -3.7687      2.00000
      4      -2.7496      2.00000
      5      -1.9532      2.00000
      6      11.8209      0.00000
      7      15.5901      0.00000
      8      19.2739      0.00000
      9      19.5586      0.00000
     10      27.6718      0.00000
     11      29.2843      0.00000
     12      32.5126      0.00000

 k-point  1085 :      -0.1538   -0.1538    0.4615
  band No.  band energies     occupation 
      1     -43.5614      2.00000
      2     -22.2326      2.00000
      3      -3.9002      2.00000
      4      -2.4478      2.00000
      5      -1.8799      2.00000
      6      11.2651      0.00000
      7      15.9099      0.00000
      8      19.2550      0.00000
      9      19.3892      0.00000
     10      28.8928      0.00000
     11      30.3302      0.00000
     12      30.5693      0.00000

 k-point  1086 :      -0.0769   -0.1538    0.4615
  band No.  band energies     occupation 
      1     -43.5611      2.00000
      2     -22.2344      2.00000
      3      -3.9923      2.00000
      4      -2.2705      2.00000
      5      -1.9169      2.00000
      6      11.0764      0.00000
      7      16.1101      0.00000
      8      19.1291      0.00000
      9      19.2775      0.00000
     10      28.5016      0.00000
     11      30.2335      0.00000
     12      32.3106      0.00000

 k-point  1087 :       0.0000   -0.0769    0.4615
  band No.  band energies     occupation 
      1     -43.5626      2.00000
      2     -22.2614      2.00000
      3      -4.0649      2.00000
      4      -1.9898      2.00000
      5      -1.8477      2.00000
      6      10.5843      0.00000
      7      16.4626      0.00000
      8      19.0248      0.00000
      9      19.0808      0.00000
     10      30.0148      0.00000
     11      30.9062      0.00000
     12      31.0962      0.00000

 k-point  1088 :       0.0769   -0.0769    0.4615
  band No.  band energies     occupation 
      1     -43.5611      2.00000
      2     -22.2344      2.00000
      3      -3.9923      2.00000
      4      -2.2706      2.00000
      5      -1.9168      2.00000
      6      11.0764      0.00000
      7      16.1101      0.00000
      8      19.1300      0.00000
      9      19.2767      0.00000
     10      28.5015      0.00000
     11      30.2328      0.00000
     12      32.3115      0.00000

 k-point  1089 :       0.1538   -0.0769    0.4615
  band No.  band energies     occupation 
      1     -43.5583      2.00000
      2     -22.1861      2.00000
      3      -3.9045      2.00000
      4      -2.6524      2.00000
      5      -2.0688      2.00000
      6      11.9434      0.00000
      7      15.7004      0.00000
      8      19.1065      0.00000
      9      19.5188      0.00000
     10      26.1600      0.00000
     11      30.7816      0.00000
     12      34.0756      0.00000

 k-point  1090 :       0.2308   -0.0769    0.4615
  band No.  band energies     occupation 
      1     -43.5550      2.00000
      2     -22.1270      2.00000
      3      -3.9612      2.00000
      4      -2.8830      2.00000
      5      -2.2530      2.00000
      6      12.9851      0.00000
      7      15.4407      0.00000
      8      18.7343      0.00000
      9      19.7996      0.00000
     10      24.1025      0.00000
     11      32.0032      0.00000
     12      35.5780      0.00000

 k-point  1091 :       0.3077   -0.0769    0.4615
  band No.  band energies     occupation 
      1     -43.5519      2.00000
      2     -22.0707      2.00000
      3      -4.2245      2.00000
      4      -2.8371      2.00000
      5      -2.4212      2.00000
      6      13.9069      0.00000
      7      15.4579      0.00000
      8      18.1468      0.00000
      9      20.0621      0.00000
     10      22.5091      0.00000
     11      33.4192      0.00000
     12      35.6834      0.00000

 k-point  1092 :       0.3846   -0.0769    0.4615
  band No.  band energies     occupation 
      1     -43.5496      2.00000
      2     -22.0301      2.00000
      3      -4.4749      2.00000
      4      -2.7149      2.00000
      5      -2.5344      2.00000
      6      14.4280      0.00000
      7      15.6735      0.00000
      8      17.7488      0.00000
      9      20.2695      0.00000
     10      21.3916      0.00000
     11      33.7552      0.00000
     12      37.0597      0.00000

 k-point  1093 :       0.4615   -0.0769    0.4615
  band No.  band energies     occupation 
      1     -43.5488      2.00000
      2     -22.0152      2.00000
      3      -4.5703      2.00000
      4      -2.6657      2.00000
      5      -2.5688      2.00000
      6      14.5929      0.00000
      7      15.7291      0.00000
      8      17.7104      0.00000
      9      20.4045      0.00000
     10      20.8907      0.00000
     11      33.6540      0.00000
     12      38.2429      0.00000

 k-point  1094 :      -0.4615   -0.0769    0.4615
  band No.  band energies     occupation 
      1     -43.5496      2.00000
      2     -22.0301      2.00000
      3      -4.4750      2.00000
      4      -2.7148      2.00000
      5      -2.5344      2.00000
      6      14.4279      0.00000
      7      15.6735      0.00000
      8      17.7487      0.00000
      9      20.2696      0.00000
     10      21.3915      0.00000
     11      33.7551      0.00000
     12      37.0603      0.00000

 k-point  1095 :      -0.3846   -0.0769    0.4615
  band No.  band energies     occupation 
      1     -43.5519      2.00000
      2     -22.0707      2.00000
      3      -4.2246      2.00000
      4      -2.8371      2.00000
      5      -2.4212      2.00000
      6      13.9069      0.00000
      7      15.4579      0.00000
      8      18.1466      0.00000
      9      20.0622      0.00000
     10      22.5089      0.00000
     11      33.4189      0.00000
     12      35.6829      0.00000

 k-point  1096 :      -0.3077   -0.0769    0.4615
  band No.  band energies     occupation 
      1     -43.5550      2.00000
      2     -22.1270      2.00000
      3      -3.9613      2.00000
      4      -2.8830      2.00000
      5      -2.2530      2.00000
      6      12.9851      0.00000
      7      15.4406      0.00000
      8      18.7339      0.00000
      9      19.7999      0.00000
     10      24.1023      0.00000
     11      32.0032      0.00000
     12      35.5780      0.00000

 k-point  1097 :      -0.2308   -0.0769    0.4615
  band No.  band energies     occupation 
      1     -43.5583      2.00000
      2     -22.1861      2.00000
      3      -3.9044      2.00000
      4      -2.6524      2.00000
      5      -2.0689      2.00000
      6      11.9434      0.00000
      7      15.7004      0.00000
      8      19.1059      0.00000
      9      19.5193      0.00000
     10      26.1598      0.00000
     11      30.7820      0.00000
     12      34.0755      0.00000

 k-point  1098 :      -0.1538   -0.0769    0.4615
  band No.  band energies     occupation 
      1     -43.5611      2.00000
      2     -22.2344      2.00000
      3      -3.9923      2.00000
      4      -2.2705      2.00000
      5      -1.9169      2.00000
      6      11.0764      0.00000
      7      16.1101      0.00000
      8      19.1291      0.00000
      9      19.2775      0.00000
     10      28.5016      0.00000
     11      30.2335      0.00000
     12      32.3106      0.00000

 k-point  1099 :      -0.0769   -0.0769    0.4615
  band No.  band energies     occupation 
      1     -43.5626      2.00000
      2     -22.2614      2.00000
      3      -4.0649      2.00000
      4      -1.9897      2.00000
      5      -1.8479      2.00000
      6      10.5843      0.00000
      7      16.4626      0.00000
      8      19.0238      0.00000
      9      19.0817      0.00000
     10      30.0161      0.00000
     11      30.9059      0.00000
     12      31.0949      0.00000


--------------------------------------------------------------------------------------------------------


 soft charge-density along one line, spin component           1
         0         1         2         3         4         5         6         7         8         9
 total charge-density along one line
 
 pseudopotential strength for first ion, spin component:           1
-39.676   3.226  -0.000   0.000   0.000
  3.226  -9.530   0.000  -0.000  -0.000
 -0.000   0.000   1.507  -0.000  -0.000
  0.000  -0.000  -0.000   1.507  -0.000
  0.000  -0.000  -0.000  -0.000   1.507
 total augmentation occupancy for first ion, spin component:           1
  1.999  -0.037   0.000  -0.000  -0.000
 -0.037   0.543  -0.000   0.000   0.000
  0.000  -0.000   0.007   0.000   0.000
 -0.000   0.000   0.000   0.007   0.000
 -0.000   0.000   0.000   0.000   0.007


------------------------ aborting loop because EDIFF is reached ----------------------------------------


 


 total charge     
 
# of ion       s       p       d       tot
------------------------------------------
    1        2.013   0.016   0.000   2.029
    2        1.731   4.437   0.000   6.169
--------------------------------------------------
tot          3.744   4.453   0.000   8.197
 
    FORLOC:  cpu time    0.0001: real time    0.0001
    FORNL :  cpu time    0.8051: real time    0.8053
    STRESS:  cpu time   14.8505: real time   14.8531
    FORCOR:  cpu time    0.0144: real time    0.0220
    OFIELD:  cpu time    0.0002: real time    0.0016

  FORCE on cell =-STRESS in cart. coord.  units (eV):
  Direction    XX          YY          ZZ          XY          YZ          ZX
  --------------------------------------------------------------------------------------
  Alpha Z    20.26975    20.26975    20.26975
  Ewald    -186.37814  -186.37814  -186.37815    -0.00097    -0.00097    -0.00097
  Hartree    75.55201    75.55201    75.55201     0.00041     0.00041     0.00041
  E(xc)     -57.71460   -57.71460   -57.71460    -0.00003    -0.00003    -0.00003
  Local     -38.23288   -38.23288   -38.23286     0.00047     0.00047     0.00047
  n-local   -53.66794   -53.66794   -53.66794     0.00013     0.00013     0.00013
  augment    37.40895    37.40895    37.40895     0.00032     0.00032     0.00032
  Kinetic   202.54170   202.54170   202.54170     0.00017     0.00017     0.00017
  Fock        0.00000     0.00000     0.00000     0.00000     0.00000     0.00000
  -------------------------------------------------------------------------------------
  Total      -0.22115    -0.22115    -0.22115     0.00049     0.00049     0.00049
  in kB     -21.92028   -21.92028   -21.92030     0.04861     0.04864     0.04864
  external pressure =      -21.92 kB  Pullay stress =        0.00 kB


 VOLUME and BASIS-vectors are now :
 -----------------------------------------------------------------------------
  energy-cutoff  :      520.00
  volume of cell :       16.16
      direct lattice vectors                 reciprocal lattice vectors
    -0.000086870  2.006755769  2.006755816    -0.249142191  0.249152982  0.249152971
     2.006755766 -0.000086863  2.006755809     0.249152982 -0.249142193  0.249152972
     2.006755810  2.006755807 -0.000086908     0.249152971  0.249152973 -0.249142181

  length of vectors
     2.837981259  2.837981252  2.837981282     0.431539387  0.431539389  0.431539376


 FORCES acting on ions:
    Electron-Ion                     Ewald-Force                    Non-Local-Force
 -----------------------------------------------------------------------------------------------
   -.136E-07 -.237E-05 0.767E-05   0.204E-07 0.230E-05 -.741E-05   0.337E-08 0.122E-06 -.375E-06
   0.905E-08 0.192E-05 -.624E-05   -.204E-07 -.230E-05 0.741E-05   -.320E-07 0.302E-06 -.106E-05
 -----------------------------------------------------------------------------------------------
   -.455E-08 -.451E-06 0.143E-05   -.198E-15 -.202E-16 0.458E-15   -.286E-07 0.424E-06 -.143E-05
 
 
 POSITION                                       TOTAL-FORCE (eV/Angst)
 -----------------------------------------------------------------------------------
      2.00676      2.00676     -0.00009         0.000000      0.000000     -0.000000
      2.00671      2.00671      2.00671        -0.000000     -0.000000      0.000000
 -----------------------------------------------------------------------------------
    total drift:                               -0.000000     -0.000000     -0.000000


--------------------------------------------------------------------------------------------------------



  FREE ENERGIE OF THE ION-ELECTRON SYSTEM (eV)
  ---------------------------------------------------
  free  energy   TOTEN  =       -11.90347622 eV

  energy  without entropy=      -11.90347622  energy(sigma->0) =      -11.90347622
 
 d Force = 0.7697125E-14[-0.509E-14, 0.205E-13]  d Energy = 0.1116432E-01-0.112E-01
 d Force =-0.1540220E-12[-0.232E-12,-0.765E-13]  d Ewald  = 0.6067788E+01-0.607E+01


--------------------------------------------------------------------------------------------------------


    POTLOK:  cpu time    0.2388: real time    0.2442


--------------------------------------------------------------------------------------------------------


 stress matrix after NEB project (eV)
     -0.22115      0.00049      0.00049
      0.00049     -0.22115      0.00049
      0.00049      0.00049     -0.22115
  FORCES: max atom, RMS     0.000000    0.000000
  FORCE total and by dimension    0.000000    0.000000
  Stress total and by dimension    0.383037    0.221145
 Steepest descent step on ions:
 trial-energy change:   -0.011164  1 .order   -0.010923   -0.014647   -0.007200
  (g-gl).g = 0.146E-01      g.g   = 0.146E-01  gl.gl    = 0.000E+00
 g(Force)  = 0.207E-13   g(Stress)= 0.146E-01 ortho     = 0.000E+00
 gamma     =   0.00000
 trial     =   1.00000
 opt step  =   1.72428  (harmonic =   1.96671) maximal distance =0.00000003
 next E    =   -11.906175   (d E  =  -0.01386)


--------------------------------------------------------------------------------------------------------


    WAVPRE:  cpu time    0.0023: real time    0.0241
    FEWALD:  cpu time    0.0002: real time    0.0008
    GENKIN:  cpu time    0.0536: real time    0.0536

 real space projection operators:
  total allocation   :        428.35 KBytes
  max/ min on nodes  :        107.49        106.75

    ORTHCH:  cpu time    0.4107: real time    0.4107
    CHARGE:  cpu time    0.7888: real time    0.7888
     LOOP+:  cpu time   98.6700: real time  100.2076


--------------------------------------- Iteration      3(   1)  ---------------------------------------


    POTLOK:  cpu time    0.0149: real time    0.0149
    SETDIJ:  cpu time    0.2217: real time    0.2220
