 vasp.5.4.4.18Apr17-6-g9f103f2a35 (build Nov 08 2022 17:27:33) complex          
  
 executed on             LinuxIFC date 2022.11.22  17:16:00
 running on   16 total cores
 distrk:  each k-point on   16 cores,    1 groups
 distr:  one band on NCORES_PER_BAND=   4 cores,    4 groups


--------------------------------------------------------------------------------------------------------


 INCAR:
 POTCAR:    PAW_PBE Li_sv 10Sep2004               
 POTCAR:    PAW_PBE F 08Apr2002                   
 POTCAR:    PAW_PBE Li_sv 10Sep2004               
   VRHFIN =Li: 1s2s2p                                                           
   LEXCH  = PE                                                                  
   EATOM  =   202.7858 eV,   14.9043 Ry                                         
                                                                                
   TITEL  = PAW_PBE Li_sv 10Sep2004                                             
   LULTRA =        F    use ultrasoft PP ?                                      
   IUNSCR =        0    unscreen: 0-lin 1-nonlin 2-no                           
   RPACOR =    0.000    partial core radius                                     
   POMASS =    7.010; ZVAL   =    3.000    mass and valenz                      
   RCORE  =    1.700    outmost cutoff radius                                   
   RWIGS  =    2.050; RWIGS  =    1.085    wigner-seitz radius (au A)           
   ENMAX  =  499.034; ENMIN  =  374.276 eV                                      
   ICORE  =        2    local potential                                         
   LCOR   =        T    correct aug charges                                     
   LPAW   =        T    paw PP                                                  
   EAUG   =  628.945                                                            
   RMAX   =    1.732    core radius for proj-oper                               
   RAUG   =    1.300    factor for augmentation sphere                          
   RDEP   =    1.728    radius for radial grids                                 
   RDEPT  =    1.329    core radius for aug-charge                              
                                                                                
   Atomic configuration                                                         
    4 entries                                                                   
     n  l   j            E        occ.                                          
     1  0  0.50       -51.8549   2.0000                                         
     2  0  0.50        -2.8742   1.0000                                         
     2  1  0.50        -1.3606   0.0000                                         
     3  2  1.50        -1.3606   0.0000                                         
   Description                                                                  
     l       E           TYP  RCUT    TYP  RCUT                                 
     0    -51.8548813     23  1.400                                             
     0     -2.8742052     23  1.700                                             
     1     -1.3605826     23  1.400                                             
     2     -1.3605826     23  1.400                                             
  local pseudopotential read in
  atomic valenz-charges read in
  non local Contribution for L=           0  read in
    real space projection operators read in
  non local Contribution for L=           0  read in
    real space projection operators read in
  non local Contribution for L=           1  read in
    real space projection operators read in
    PAW grid and wavefunctions read in
 
   number of l-projection  operators is LMAX  =           3
   number of lm-projection operators is LMMAX =           5
 
 POTCAR:    PAW_PBE F 08Apr2002                   
   VRHFIN =F: s2p5                                                              
   LEXCH  = PE                                                                  
   EATOM  =   659.6475 eV,   48.4827 Ry                                         
                                                                                
   TITEL  = PAW_PBE F 08Apr2002                                                 
   LULTRA =        F    use ultrasoft PP ?                                      
   IUNSCR =        1    unscreen: 0-lin 1-nonlin 2-no                           
   RPACOR =    1.200    partial core radius                                     
   POMASS =   18.998; ZVAL   =    7.000    mass and valenz                      
   RCORE  =    1.520    outmost cutoff radius                                   
   RWIGS  =    1.500; RWIGS  =    0.794    wigner-seitz radius (au A)           
   ENMAX  =  400.000; ENMIN  =  300.000 eV                                      
   ICORE  =        2    local potential                                         
   LCOR   =        T    correct aug charges                                     
   LPAW   =        T    paw PP                                                  
   EAUG   =  613.614                                                            
   RMAX   =    1.555    core radius for proj-oper                               
   RAUG   =    1.300    factor for augmentation sphere                          
   RDEP   =    1.539    radius for radial grids                                 
   RDEPT  =    1.299    core radius for aug-charge                              
                                                                                
   Atomic configuration                                                         
    4 entries                                                                   
     n  l   j            E        occ.                                          
     1  0  0.50      -663.3661   2.0000                                         
     2  0  0.50       -29.8995   2.0000                                         
     2  1  0.50       -11.1114   5.0000                                         
     3  2  1.50       -10.8847   0.0000                                         
   Description                                                                  
     l       E           TYP  RCUT    TYP  RCUT                                 
     0    -29.8995018     23  1.200                                             
     0     -9.5240782     23  1.200                                             
     1    -11.1113914     23  1.520                                             
     1      1.3605826     23  1.520                                             
     2    -10.8846608      7  1.500                                             
  local pseudopotential read in
  partial core-charges read in
  partial kinetic energy density read in
  atomic valenz-charges read in
  non local Contribution for L=           0  read in
    real space projection operators read in
  non local Contribution for L=           0  read in
    real space projection operators read in
  non local Contribution for L=           1  read in
    real space projection operators read in
  non local Contribution for L=           1  read in
    real space projection operators read in
    PAW grid and wavefunctions read in
 
   number of l-projection  operators is LMAX  =           4
   number of lm-projection operators is LMMAX =           8
 

 ----------------------------------------------------------------------------- 
|                                                                             |
|  ADVICE TO THIS USER RUNNING 'VASP/VAMP'   (HEAR YOUR MASTER'S VOICE ...):  |
|                                                                             |
|      You have a (more or less) 'small supercell' and for smaller cells      |
|      it is recommended  to use the reciprocal-space projection scheme!      |
|      The real space optimization is not  efficient for small cells and it   |
|      is also less accurate ...                                              |
|      Therefore set LREAL=.FALSE. in the  INCAR file                         |
|                                                                             |
 ----------------------------------------------------------------------------- 

 Optimization of the real space projectors (new method)

 maximal supplied QI-value         = 22.11
 optimisation between [QCUT,QGAM] = [ 11.50, 23.22] = [ 37.02,150.92] Ry 
 Optimized for a Real-space Cutoff    1.08 Angstroem

   l    n(q)    QCUT    max X(q) W(low)/X(q) W(high)/X(q)  e(spline) 
   0      7    11.497    10.506    0.36E-04    0.62E-04    0.14E-07
   0      7    11.497     8.367    0.65E-04    0.14E-03    0.28E-07
   1      7    11.497     8.983    0.21E-03    0.43E-03    0.90E-07
 Optimization of the real space projectors (new method)

 maximal supplied QI-value         = 24.76
 optimisation between [QCUT,QGAM] = [ 11.64, 23.27] = [ 37.91,151.63] Ry 
 Optimized for a Real-space Cutoff    1.04 Angstroem

   l    n(q)    QCUT    max X(q) W(low)/X(q) W(high)/X(q)  e(spline) 
   0      7    11.635    14.049    0.77E-04    0.36E-03    0.13E-06
   0      7    11.635     8.945    0.12E-03    0.48E-03    0.17E-06
   1      7    11.635     7.086    0.24E-03    0.44E-03    0.21E-06
   1      7    11.635     6.747    0.23E-03    0.35E-03    0.19E-06
  PAW_PBE Li_sv 10Sep2004               :
 energy of atom  1       EATOM= -202.7858
 kinetic energy error for atom=    0.0130 (will be added to EATOM!!)
  PAW_PBE F 08Apr2002                   :
 energy of atom  2       EATOM= -659.6475
 kinetic energy error for atom=    0.0323 (will be added to EATOM!!)
 
 
 POSCAR: Li1 F1                                  
  positions in direct lattice
  velocities in cartesian coordinates

 METAGGA = R2SCA    LMAXTAU =  6    LMIXTAU =  T

 exchange correlation table for  LEXCH =        8
   RHO(1)=    0.500       N(1)  =     2000
   RHO(2)=  100.500       N(2)  =     4000

 VTST: version 3.2, (02/03/18)

 CHAIN: initializing optimizer
 
 OPT: Using VASP Conjugate-Gradient optimizer
 CHAIN: Read ICHAIN            0
 
 POSCAR: Li1 F1                                  
  positions in direct lattice
  velocities in cartesian coordinates
 


--------------------------------------------------------------------------------------------------------


 ion  position               nearest neighbor table
   1  0.000  0.000  1.000-   2 2.03   2 2.03   2 2.03   2 2.03   2 2.03   2 2.03
   2  0.500  0.500  0.500-   1 2.03   1 2.03   1 2.03   1 2.03   1 2.03   1 2.03
 

IMPORTANT INFORMATION: All symmetrisations will be switched off!
NOSYMM: (Re-)initialisation of all symmetry stuff for point group C_1.

 
 

Automatic generation of k-mesh.
 generate k-points for:   13   13   13
Space group operators:
 irot       det(A)        alpha          n_x          n_y          n_z        tau_x        tau_y        tau_z
    1     1.000000     0.000001     1.000000     0.000000     0.000000     0.000000     0.000000     0.000000
 
 Subroutine IBZKPT returns following result:
 ===========================================
 
 Found   1099 irreducible k-points:
 
 Following reciprocal coordinates:
            Coordinates               Weight
  0.000000  0.000000  0.000000      1.000000
  0.076923 -0.000000  0.000000      2.000000
  0.153846 -0.000000 -0.000000      2.000000
  0.230769  0.000000 -0.000000      2.000000
  0.307692  0.000000 -0.000000      2.000000
  0.384615  0.000000 -0.000000      2.000000
  0.461538  0.000000 -0.000000      2.000000
 -0.000000  0.076923 -0.000000      2.000000
  0.076923  0.076923 -0.000000      2.000000
  0.153846  0.076923 -0.000000      2.000000
  0.230769  0.076923 -0.000000      2.000000
  0.307692  0.076923 -0.000000      2.000000
  0.384615  0.076923 -0.000000      2.000000
  0.461538  0.076923 -0.000000      2.000000
 -0.461538  0.076923  0.000000      2.000000
 -0.384615  0.076923 -0.000000      2.000000
 -0.307692  0.076923  0.000000      2.000000
 -0.230769  0.076923 -0.000000      2.000000
 -0.153846  0.076923 -0.000000      2.000000
 -0.076923  0.076923 -0.000000      2.000000
 -0.000000  0.153846 -0.000000      2.000000
  0.076923  0.153846  0.000000      2.000000
  0.153846  0.153846 -0.000000      2.000000
  0.230769  0.153846 -0.000000      2.000000
  0.307692  0.153846 -0.000000      2.000000
  0.384615  0.153846 -0.000000      2.000000
  0.461538  0.153846 -0.000000      2.000000
 -0.461538  0.153846  0.000000      2.000000
 -0.384615  0.153846  0.000000      2.000000
 -0.307692  0.153846  0.000000      2.000000
 -0.230769  0.153846  0.000000      2.000000
 -0.153846  0.153846 -0.000000      2.000000
 -0.076923  0.153846 -0.000000      2.000000
 -0.000000  0.230769  0.000000      2.000000
  0.076923  0.230769  0.000000      2.000000
  0.153846  0.230769  0.000000      2.000000
  0.230769  0.230769 -0.000000      2.000000
  0.307692  0.230769 -0.000000      2.000000
  0.384615  0.230769 -0.000000      2.000000
  0.461538  0.230769 -0.000000      2.000000
 -0.461538  0.230769  0.000000      2.000000
 -0.384615  0.230769  0.000000      2.000000
 -0.307692  0.230769  0.000000      2.000000
 -0.230769  0.230769 -0.000000      2.000000
 -0.153846  0.230769  0.000000      2.000000
 -0.076923  0.230769  0.000000      2.000000
  0.000000  0.307692  0.000000      2.000000
  0.076923  0.307692  0.000000      2.000000
  0.153846  0.307692  0.000000      2.000000
  0.230769  0.307692 -0.000000      2.000000
  0.307692  0.307692 -0.000000      2.000000
  0.384615  0.307692 -0.000000      2.000000
  0.461538  0.307692 -0.000000      2.000000
 -0.461538  0.307692  0.000000      2.000000
 -0.384615  0.307692  0.000000      2.000000
 -0.307692  0.307692  0.000000      2.000000
 -0.230769  0.307692  0.000000      2.000000
 -0.153846  0.307692 -0.000000      2.000000
 -0.076923  0.307692  0.000000      2.000000
 -0.000000  0.384615  0.000000      2.000000
  0.076923  0.384615  0.000000      2.000000
  0.153846  0.384615  0.000000      2.000000
  0.230769  0.384615 -0.000000      2.000000
  0.307692  0.384615  0.000000      2.000000
  0.384615  0.384615 -0.000000      2.000000
  0.461538  0.384615 -0.000000      2.000000
 -0.461538  0.384615  0.000000      2.000000
 -0.384615  0.384615  0.000000      2.000000
 -0.307692  0.384615  0.000000      2.000000
 -0.230769  0.384615  0.000000      2.000000
 -0.153846  0.384615  0.000000      2.000000
 -0.076923  0.384615  0.000000      2.000000
 -0.000000  0.461538  0.000000      2.000000
  0.076923  0.461538 -0.000000      2.000000
  0.153846  0.461538  0.000000      2.000000
  0.230769  0.461538 -0.000000      2.000000
  0.307692  0.461538 -0.000000      2.000000
  0.384615  0.461538 -0.000000      2.000000
  0.461538  0.461538 -0.000000      2.000000
 -0.461538  0.461538 -0.000000      2.000000
 -0.384615  0.461538  0.000000      2.000000
 -0.307692  0.461538  0.000000      2.000000
 -0.230769  0.461538  0.000000      2.000000
 -0.153846  0.461538 -0.000000      2.000000
 -0.076923  0.461538 -0.000000      2.000000
  0.000000  0.000000  0.076923      2.000000
  0.076923  0.000000  0.076923      2.000000
  0.153846  0.000000  0.076923      2.000000
  0.230769 -0.000000  0.076923      2.000000
  0.307692  0.000000  0.076923      2.000000
  0.384615 -0.000000  0.076923      2.000000
  0.461538 -0.000000  0.076923      2.000000
 -0.461538 -0.000000  0.076923      2.000000
 -0.384615 -0.000000  0.076923      2.000000
 -0.307692 -0.000000  0.076923      2.000000
 -0.230769  0.000000  0.076923      2.000000
 -0.153846 -0.000000  0.076923      2.000000
 -0.076923 -0.000000  0.076923      2.000000
 -0.000000  0.076923  0.076923      2.000000
  0.076923  0.076923  0.076923      2.000000
  0.153846  0.076923  0.076923      2.000000
  0.230769  0.076923  0.076923      2.000000
  0.307692  0.076923  0.076923      2.000000
  0.384615  0.076923  0.076923      2.000000
  0.461538  0.076923  0.076923      2.000000
 -0.461538  0.076923  0.076923      2.000000
 -0.384615  0.076923  0.076923      2.000000
 -0.307692  0.076923  0.076923      2.000000
 -0.230769  0.076923  0.076923      2.000000
 -0.153846  0.076923  0.076923      2.000000
 -0.076923  0.076923  0.076923      2.000000
 -0.000000  0.153846  0.076923      2.000000
  0.076923  0.153846  0.076923      2.000000
  0.153846  0.153846  0.076923      2.000000
  0.230769  0.153846  0.076923      2.000000
  0.307692  0.153846  0.076923      2.000000
  0.384615  0.153846  0.076923      2.000000
  0.461538  0.153846  0.076923      2.000000
 -0.461538  0.153846  0.076923      2.000000
 -0.384615  0.153846  0.076923      2.000000
 -0.307692  0.153846  0.076923      2.000000
 -0.230769  0.153846  0.076923      2.000000
 -0.153846  0.153846  0.076923      2.000000
 -0.076923  0.153846  0.076923      2.000000
  0.000000  0.230769  0.076923      2.000000
  0.076923  0.230769  0.076923      2.000000
  0.153846  0.230769  0.076923      2.000000
  0.230769  0.230769  0.076923      2.000000
  0.307692  0.230769  0.076923      2.000000
  0.384615  0.230769  0.076923      2.000000
  0.461538  0.230769  0.076923      2.000000
 -0.461538  0.230769  0.076923      2.000000
 -0.384615  0.230769  0.076923      2.000000
 -0.307692  0.230769  0.076923      2.000000
 -0.230769  0.230769  0.076923      2.000000
 -0.153846  0.230769  0.076923      2.000000
 -0.076923  0.230769  0.076923      2.000000
 -0.000000  0.307692  0.076923      2.000000
  0.076923  0.307692  0.076923      2.000000
  0.153846  0.307692  0.076923      2.000000
  0.230769  0.307692  0.076923      2.000000
  0.307692  0.307692  0.076923      2.000000
  0.384615  0.307692  0.076923      2.000000
  0.461538  0.307692  0.076923      2.000000
 -0.461538  0.307692  0.076923      2.000000
 -0.384615  0.307692  0.076923      2.000000
 -0.307692  0.307692  0.076923      2.000000
 -0.230769  0.307692  0.076923      2.000000
 -0.153846  0.307692  0.076923      2.000000
 -0.076923  0.307692  0.076923      2.000000
  0.000000  0.384615  0.076923      2.000000
  0.076923  0.384615  0.076923      2.000000
  0.153846  0.384615  0.076923      2.000000
  0.230769  0.384615  0.076923      2.000000
  0.307692  0.384615  0.076923      2.000000
  0.384615  0.384615  0.076923      2.000000
  0.461538  0.384615  0.076923      2.000000
 -0.461538  0.384615  0.076923      2.000000
 -0.384615  0.384615  0.076923      2.000000
 -0.307692  0.384615  0.076923      2.000000
 -0.230769  0.384615  0.076923      2.000000
 -0.153846  0.384615  0.076923      2.000000
 -0.076923  0.384615  0.076923      2.000000
 -0.000000  0.461538  0.076923      2.000000
  0.076923  0.461538  0.076923      2.000000
  0.153846  0.461538  0.076923      2.000000
  0.230769  0.461538  0.076923      2.000000
  0.307692  0.461538  0.076923      2.000000
  0.384615  0.461538  0.076923      2.000000
  0.461538  0.461538  0.076923      2.000000
 -0.461538  0.461538  0.076923      2.000000
 -0.384615  0.461538  0.076923      2.000000
 -0.307692  0.461538  0.076923      2.000000
 -0.230769  0.461538  0.076923      2.000000
 -0.153846  0.461538  0.076923      2.000000
 -0.076923  0.461538  0.076923      2.000000
  0.000000 -0.461538  0.076923      2.000000
  0.076923 -0.461538  0.076923      2.000000
  0.153846 -0.461538  0.076923      2.000000
  0.230769 -0.461538  0.076923      2.000000
  0.307692 -0.461538  0.076923      2.000000
  0.384615 -0.461538  0.076923      2.000000
  0.461538 -0.461538  0.076923      2.000000
 -0.461538 -0.461538  0.076923      2.000000
 -0.384615 -0.461538  0.076923      2.000000
 -0.307692 -0.461538  0.076923      2.000000
 -0.230769 -0.461538  0.076923      2.000000
 -0.153846 -0.461538  0.076923      2.000000
 -0.076923 -0.461538  0.076923      2.000000
  0.000000 -0.384615  0.076923      2.000000
  0.076923 -0.384615  0.076923      2.000000
  0.153846 -0.384615  0.076923      2.000000
  0.230769 -0.384615  0.076923      2.000000
  0.307692 -0.384615  0.076923      2.000000
  0.384615 -0.384615  0.076923      2.000000
  0.461538 -0.384615  0.076923      2.000000
 -0.461538 -0.384615  0.076923      2.000000
 -0.384615 -0.384615  0.076923      2.000000
 -0.307692 -0.384615  0.076923      2.000000
 -0.230769 -0.384615  0.076923      2.000000
 -0.153846 -0.384615  0.076923      2.000000
 -0.076923 -0.384615  0.076923      2.000000
  0.000000 -0.307692  0.076923      2.000000
  0.076923 -0.307692  0.076923      2.000000
  0.153846 -0.307692  0.076923      2.000000
  0.230769 -0.307692  0.076923      2.000000
  0.307692 -0.307692  0.076923      2.000000
  0.384615 -0.307692  0.076923      2.000000
  0.461538 -0.307692  0.076923      2.000000
 -0.461538 -0.307692  0.076923      2.000000
 -0.384615 -0.307692  0.076923      2.000000
 -0.307692 -0.307692  0.076923      2.000000
 -0.230769 -0.307692  0.076923      2.000000
 -0.153846 -0.307692  0.076923      2.000000
 -0.076923 -0.307692  0.076923      2.000000
  0.000000 -0.230769  0.076923      2.000000
  0.076923 -0.230769  0.076923      2.000000
  0.153846 -0.230769  0.076923      2.000000
  0.230769 -0.230769  0.076923      2.000000
  0.307692 -0.230769  0.076923      2.000000
  0.384615 -0.230769  0.076923      2.000000
  0.461538 -0.230769  0.076923      2.000000
 -0.461538 -0.230769  0.076923      2.000000
 -0.384615 -0.230769  0.076923      2.000000
 -0.307692 -0.230769  0.076923      2.000000
 -0.230769 -0.230769  0.076923      2.000000
 -0.153846 -0.230769  0.076923      2.000000
 -0.076923 -0.230769  0.076923      2.000000
  0.000000 -0.153846  0.076923      2.000000
  0.076923 -0.153846  0.076923      2.000000
  0.153846 -0.153846  0.076923      2.000000
  0.230769 -0.153846  0.076923      2.000000
  0.307692 -0.153846  0.076923      2.000000
  0.384615 -0.153846  0.076923      2.000000
  0.461538 -0.153846  0.076923      2.000000
 -0.461538 -0.153846  0.076923      2.000000
 -0.384615 -0.153846  0.076923      2.000000
 -0.307692 -0.153846  0.076923      2.000000
 -0.230769 -0.153846  0.076923      2.000000
 -0.153846 -0.153846  0.076923      2.000000
 -0.076923 -0.153846  0.076923      2.000000
  0.000000 -0.076923  0.076923      2.000000
  0.076923 -0.076923  0.076923      2.000000
  0.153846 -0.076923  0.076923      2.000000
  0.230769 -0.076923  0.076923      2.000000
  0.307692 -0.076923  0.076923      2.000000
  0.384615 -0.076923  0.076923      2.000000
  0.461538 -0.076923  0.076923      2.000000
 -0.461538 -0.076923  0.076923      2.000000
 -0.384615 -0.076923  0.076923      2.000000
 -0.307692 -0.076923  0.076923      2.000000
 -0.230769 -0.076923  0.076923      2.000000
 -0.153846 -0.076923  0.076923      2.000000
 -0.076923 -0.076923  0.076923      2.000000
  0.000000  0.000000  0.153846      2.000000
  0.076923 -0.000000  0.153846      2.000000
  0.153846  0.000000  0.153846      2.000000
  0.230769  0.000000  0.153846      2.000000
  0.307692  0.000000  0.153846      2.000000
  0.384615  0.000000  0.153846      2.000000
  0.461538 -0.000000  0.153846      2.000000
 -0.461538 -0.000000  0.153846      2.000000
 -0.384615  0.000000  0.153846      2.000000
 -0.307692  0.000000  0.153846      2.000000
 -0.230769  0.000000  0.153846      2.000000
 -0.153846 -0.000000  0.153846      2.000000
 -0.076923  0.000000  0.153846      2.000000
  0.000000  0.076923  0.153846      2.000000
  0.076923  0.076923  0.153846      2.000000
  0.153846  0.076923  0.153846      2.000000
  0.230769  0.076923  0.153846      2.000000
  0.307692  0.076923  0.153846      2.000000
  0.384615  0.076923  0.153846      2.000000
  0.461538  0.076923  0.153846      2.000000
 -0.461538  0.076923  0.153846      2.000000
 -0.384615  0.076923  0.153846      2.000000
 -0.307692  0.076923  0.153846      2.000000
 -0.230769  0.076923  0.153846      2.000000
 -0.153846  0.076923  0.153846      2.000000
 -0.076923  0.076923  0.153846      2.000000
 -0.000000  0.153846  0.153846      2.000000
  0.076923  0.153846  0.153846      2.000000
  0.153846  0.153846  0.153846      2.000000
  0.230769  0.153846  0.153846      2.000000
  0.307692  0.153846  0.153846      2.000000
  0.384615  0.153846  0.153846      2.000000
  0.461538  0.153846  0.153846      2.000000
 -0.461538  0.153846  0.153846      2.000000
 -0.384615  0.153846  0.153846      2.000000
 -0.307692  0.153846  0.153846      2.000000
 -0.230769  0.153846  0.153846      2.000000
 -0.153846  0.153846  0.153846      2.000000
 -0.076923  0.153846  0.153846      2.000000
  0.000000  0.230769  0.153846      2.000000
  0.076923  0.230769  0.153846      2.000000
  0.153846  0.230769  0.153846      2.000000
  0.230769  0.230769  0.153846      2.000000
  0.307692  0.230769  0.153846      2.000000
  0.384615  0.230769  0.153846      2.000000
  0.461538  0.230769  0.153846      2.000000
 -0.461538  0.230769  0.153846      2.000000
 -0.384615  0.230769  0.153846      2.000000
 -0.307692  0.230769  0.153846      2.000000
 -0.230769  0.230769  0.153846      2.000000
 -0.153846  0.230769  0.153846      2.000000
 -0.076923  0.230769  0.153846      2.000000
  0.000000  0.307692  0.153846      2.000000
  0.076923  0.307692  0.153846      2.000000
  0.153846  0.307692  0.153846      2.000000
  0.230769  0.307692  0.153846      2.000000
  0.307692  0.307692  0.153846      2.000000
  0.384615  0.307692  0.153846      2.000000
  0.461538  0.307692  0.153846      2.000000
 -0.461538  0.307692  0.153846      2.000000
 -0.384615  0.307692  0.153846      2.000000
 -0.307692  0.307692  0.153846      2.000000
 -0.230769  0.307692  0.153846      2.000000
 -0.153846  0.307692  0.153846      2.000000
 -0.076923  0.307692  0.153846      2.000000
 -0.000000  0.384615  0.153846      2.000000
  0.076923  0.384615  0.153846      2.000000
  0.153846  0.384615  0.153846      2.000000
  0.230769  0.384615  0.153846      2.000000
  0.307692  0.384615  0.153846      2.000000
  0.384615  0.384615  0.153846      2.000000
  0.461538  0.384615  0.153846      2.000000
 -0.461538  0.384615  0.153846      2.000000
 -0.384615  0.384615  0.153846      2.000000
 -0.307692  0.384615  0.153846      2.000000
 -0.230769  0.384615  0.153846      2.000000
 -0.153846  0.384615  0.153846      2.000000
 -0.076923  0.384615  0.153846      2.000000
 -0.000000  0.461538  0.153846      2.000000
  0.076923  0.461538  0.153846      2.000000
  0.153846  0.461538  0.153846      2.000000
  0.230769  0.461538  0.153846      2.000000
  0.307692  0.461538  0.153846      2.000000
  0.384615  0.461538  0.153846      2.000000
  0.461538  0.461538  0.153846      2.000000
 -0.461538  0.461538  0.153846      2.000000
 -0.384615  0.461538  0.153846      2.000000
 -0.307692  0.461538  0.153846      2.000000
 -0.230769  0.461538  0.153846      2.000000
 -0.153846  0.461538  0.153846      2.000000
 -0.076923  0.461538  0.153846      2.000000
  0.000000 -0.461538  0.153846      2.000000
  0.076923 -0.461538  0.153846      2.000000
  0.153846 -0.461538  0.153846      2.000000
  0.230769 -0.461538  0.153846      2.000000
  0.307692 -0.461538  0.153846      2.000000
  0.384615 -0.461538  0.153846      2.000000
  0.461538 -0.461538  0.153846      2.000000
 -0.461538 -0.461538  0.153846      2.000000
 -0.384615 -0.461538  0.153846      2.000000
 -0.307692 -0.461538  0.153846      2.000000
 -0.230769 -0.461538  0.153846      2.000000
 -0.153846 -0.461538  0.153846      2.000000
 -0.076923 -0.461538  0.153846      2.000000
  0.000000 -0.384615  0.153846      2.000000
  0.076923 -0.384615  0.153846      2.000000
  0.153846 -0.384615  0.153846      2.000000
  0.230769 -0.384615  0.153846      2.000000
  0.307692 -0.384615  0.153846      2.000000
  0.384615 -0.384615  0.153846      2.000000
  0.461538 -0.384615  0.153846      2.000000
 -0.461538 -0.384615  0.153846      2.000000
 -0.384615 -0.384615  0.153846      2.000000
 -0.307692 -0.384615  0.153846      2.000000
 -0.230769 -0.384615  0.153846      2.000000
 -0.153846 -0.384615  0.153846      2.000000
 -0.076923 -0.384615  0.153846      2.000000
  0.000000 -0.307692  0.153846      2.000000
  0.076923 -0.307692  0.153846      2.000000
  0.153846 -0.307692  0.153846      2.000000
  0.230769 -0.307692  0.153846      2.000000
  0.307692 -0.307692  0.153846      2.000000
  0.384615 -0.307692  0.153846      2.000000
  0.461538 -0.307692  0.153846      2.000000
 -0.461538 -0.307692  0.153846      2.000000
 -0.384615 -0.307692  0.153846      2.000000
 -0.307692 -0.307692  0.153846      2.000000
 -0.230769 -0.307692  0.153846      2.000000
 -0.153846 -0.307692  0.153846      2.000000
 -0.076923 -0.307692  0.153846      2.000000
  0.000000 -0.230769  0.153846      2.000000
  0.076923 -0.230769  0.153846      2.000000
  0.153846 -0.230769  0.153846      2.000000
  0.230769 -0.230769  0.153846      2.000000
  0.307692 -0.230769  0.153846      2.000000
  0.384615 -0.230769  0.153846      2.000000
  0.461538 -0.230769  0.153846      2.000000
 -0.461538 -0.230769  0.153846      2.000000
 -0.384615 -0.230769  0.153846      2.000000
 -0.307692 -0.230769  0.153846      2.000000
 -0.230769 -0.230769  0.153846      2.000000
 -0.153846 -0.230769  0.153846      2.000000
 -0.076923 -0.230769  0.153846      2.000000
  0.000000 -0.153846  0.153846      2.000000
  0.076923 -0.153846  0.153846      2.000000
  0.153846 -0.153846  0.153846      2.000000
  0.230769 -0.153846  0.153846      2.000000
  0.307692 -0.153846  0.153846      2.000000
  0.384615 -0.153846  0.153846      2.000000
  0.461538 -0.153846  0.153846      2.000000
 -0.461538 -0.153846  0.153846      2.000000
 -0.384615 -0.153846  0.153846      2.000000
 -0.307692 -0.153846  0.153846      2.000000
 -0.230769 -0.153846  0.153846      2.000000
 -0.153846 -0.153846  0.153846      2.000000
 -0.076923 -0.153846  0.153846      2.000000
  0.000000 -0.076923  0.153846      2.000000
  0.076923 -0.076923  0.153846      2.000000
  0.153846 -0.076923  0.153846      2.000000
  0.230769 -0.076923  0.153846      2.000000
  0.307692 -0.076923  0.153846      2.000000
  0.384615 -0.076923  0.153846      2.000000
  0.461538 -0.076923  0.153846      2.000000
 -0.461538 -0.076923  0.153846      2.000000
 -0.384615 -0.076923  0.153846      2.000000
 -0.307692 -0.076923  0.153846      2.000000
 -0.230769 -0.076923  0.153846      2.000000
 -0.153846 -0.076923  0.153846      2.000000
 -0.076923 -0.076923  0.153846      2.000000
  0.000000  0.000000  0.230769      2.000000
  0.076923 -0.000000  0.230769      2.000000
  0.153846 -0.000000  0.230769      2.000000
  0.230769 -0.000000  0.230769      2.000000
  0.307692  0.000000  0.230769      2.000000
  0.384615  0.000000  0.230769      2.000000
  0.461538 -0.000000  0.230769      2.000000
 -0.461538 -0.000000  0.230769      2.000000
 -0.384615  0.000000  0.230769      2.000000
 -0.307692  0.000000  0.230769      2.000000
 -0.230769 -0.000000  0.230769      2.000000
 -0.153846 -0.000000  0.230769      2.000000
 -0.076923  0.000000  0.230769      2.000000
 -0.000000  0.076923  0.230769      2.000000
  0.076923  0.076923  0.230769      2.000000
  0.153846  0.076923  0.230769      2.000000
  0.230769  0.076923  0.230769      2.000000
  0.307692  0.076923  0.230769      2.000000
  0.384615  0.076923  0.230769      2.000000
  0.461538  0.076923  0.230769      2.000000
 -0.461538  0.076923  0.230769      2.000000
 -0.384615  0.076923  0.230769      2.000000
 -0.307692  0.076923  0.230769      2.000000
 -0.230769  0.076923  0.230769      2.000000
 -0.153846  0.076923  0.230769      2.000000
 -0.076923  0.076923  0.230769      2.000000
  0.000000  0.153846  0.230769      2.000000
  0.076923  0.153846  0.230769      2.000000
  0.153846  0.153846  0.230769      2.000000
  0.230769  0.153846  0.230769      2.000000
  0.307692  0.153846  0.230769      2.000000
  0.384615  0.153846  0.230769      2.000000
  0.461538  0.153846  0.230769      2.000000
 -0.461538  0.153846  0.230769      2.000000
 -0.384615  0.153846  0.230769      2.000000
 -0.307692  0.153846  0.230769      2.000000
 -0.230769  0.153846  0.230769      2.000000
 -0.153846  0.153846  0.230769      2.000000
 -0.076923  0.153846  0.230769      2.000000
 -0.000000  0.230769  0.230769      2.000000
  0.076923  0.230769  0.230769      2.000000
  0.153846  0.230769  0.230769      2.000000
  0.230769  0.230769  0.230769      2.000000
  0.307692  0.230769  0.230769      2.000000
  0.384615  0.230769  0.230769      2.000000
  0.461538  0.230769  0.230769      2.000000
 -0.461538  0.230769  0.230769      2.000000
 -0.384615  0.230769  0.230769      2.000000
 -0.307692  0.230769  0.230769      2.000000
 -0.230769  0.230769  0.230769      2.000000
 -0.153846  0.230769  0.230769      2.000000
 -0.076923  0.230769  0.230769      2.000000
 -0.000000  0.307692  0.230769      2.000000
  0.076923  0.307692  0.230769      2.000000
  0.153846  0.307692  0.230769      2.000000
  0.230769  0.307692  0.230769      2.000000
  0.307692  0.307692  0.230769      2.000000
  0.384615  0.307692  0.230769      2.000000
  0.461538  0.307692  0.230769      2.000000
 -0.461538  0.307692  0.230769      2.000000
 -0.384615  0.307692  0.230769      2.000000
 -0.307692  0.307692  0.230769      2.000000
 -0.230769  0.307692  0.230769      2.000000
 -0.153846  0.307692  0.230769      2.000000
 -0.076923  0.307692  0.230769      2.000000
 -0.000000  0.384615  0.230769      2.000000
  0.076923  0.384615  0.230769      2.000000
  0.153846  0.384615  0.230769      2.000000
  0.230769  0.384615  0.230769      2.000000
  0.307692  0.384615  0.230769      2.000000
  0.384615  0.384615  0.230769      2.000000
  0.461538  0.384615  0.230769      2.000000
 -0.461538  0.384615  0.230769      2.000000
 -0.384615  0.384615  0.230769      2.000000
 -0.307692  0.384615  0.230769      2.000000
 -0.230769  0.384615  0.230769      2.000000
 -0.153846  0.384615  0.230769      2.000000
 -0.076923  0.384615  0.230769      2.000000
  0.000000  0.461538  0.230769      2.000000
  0.076923  0.461538  0.230769      2.000000
  0.153846  0.461538  0.230769      2.000000
  0.230769  0.461538  0.230769      2.000000
  0.307692  0.461538  0.230769      2.000000
  0.384615  0.461538  0.230769      2.000000
  0.461538  0.461538  0.230769      2.000000
 -0.461538  0.461538  0.230769      2.000000
 -0.384615  0.461538  0.230769      2.000000
 -0.307692  0.461538  0.230769      2.000000
 -0.230769  0.461538  0.230769      2.000000
 -0.153846  0.461538  0.230769      2.000000
 -0.076923  0.461538  0.230769      2.000000
 -0.000000 -0.461538  0.230769      2.000000
  0.076923 -0.461538  0.230769      2.000000
  0.153846 -0.461538  0.230769      2.000000
  0.230769 -0.461538  0.230769      2.000000
  0.307692 -0.461538  0.230769      2.000000
  0.384615 -0.461538  0.230769      2.000000
  0.461538 -0.461538  0.230769      2.000000
 -0.461538 -0.461538  0.230769      2.000000
 -0.384615 -0.461538  0.230769      2.000000
 -0.307692 -0.461538  0.230769      2.000000
 -0.230769 -0.461538  0.230769      2.000000
 -0.153846 -0.461538  0.230769      2.000000
 -0.076923 -0.461538  0.230769      2.000000
  0.000000 -0.384615  0.230769      2.000000
  0.076923 -0.384615  0.230769      2.000000
  0.153846 -0.384615  0.230769      2.000000
  0.230769 -0.384615  0.230769      2.000000
  0.307692 -0.384615  0.230769      2.000000
  0.384615 -0.384615  0.230769      2.000000
  0.461538 -0.384615  0.230769      2.000000
 -0.461538 -0.384615  0.230769      2.000000
 -0.384615 -0.384615  0.230769      2.000000
 -0.307692 -0.384615  0.230769      2.000000
 -0.230769 -0.384615  0.230769      2.000000
 -0.153846 -0.384615  0.230769      2.000000
 -0.076923 -0.384615  0.230769      2.000000
  0.000000 -0.307692  0.230769      2.000000
  0.076923 -0.307692  0.230769      2.000000
  0.153846 -0.307692  0.230769      2.000000
  0.230769 -0.307692  0.230769      2.000000
  0.307692 -0.307692  0.230769      2.000000
  0.384615 -0.307692  0.230769      2.000000
  0.461538 -0.307692  0.230769      2.000000
 -0.461538 -0.307692  0.230769      2.000000
 -0.384615 -0.307692  0.230769      2.000000
 -0.307692 -0.307692  0.230769      2.000000
 -0.230769 -0.307692  0.230769      2.000000
 -0.153846 -0.307692  0.230769      2.000000
 -0.076923 -0.307692  0.230769      2.000000
  0.000000 -0.230769  0.230769      2.000000
  0.076923 -0.230769  0.230769      2.000000
  0.153846 -0.230769  0.230769      2.000000
  0.230769 -0.230769  0.230769      2.000000
  0.307692 -0.230769  0.230769      2.000000
  0.384615 -0.230769  0.230769      2.000000
  0.461538 -0.230769  0.230769      2.000000
 -0.461538 -0.230769  0.230769      2.000000
 -0.384615 -0.230769  0.230769      2.000000
 -0.307692 -0.230769  0.230769      2.000000
 -0.230769 -0.230769  0.230769      2.000000
 -0.153846 -0.230769  0.230769      2.000000
 -0.076923 -0.230769  0.230769      2.000000
  0.000000 -0.153846  0.230769      2.000000
  0.076923 -0.153846  0.230769      2.000000
  0.153846 -0.153846  0.230769      2.000000
  0.230769 -0.153846  0.230769      2.000000
  0.307692 -0.153846  0.230769      2.000000
  0.384615 -0.153846  0.230769      2.000000
  0.461538 -0.153846  0.230769      2.000000
 -0.461538 -0.153846  0.230769      2.000000
 -0.384615 -0.153846  0.230769      2.000000
 -0.307692 -0.153846  0.230769      2.000000
 -0.230769 -0.153846  0.230769      2.000000
 -0.153846 -0.153846  0.230769      2.000000
 -0.076923 -0.153846  0.230769      2.000000
  0.000000 -0.076923  0.230769      2.000000
  0.076923 -0.076923  0.230769      2.000000
  0.153846 -0.076923  0.230769      2.000000
  0.230769 -0.076923  0.230769      2.000000
  0.307692 -0.076923  0.230769      2.000000
  0.384615 -0.076923  0.230769      2.000000
  0.461538 -0.076923  0.230769      2.000000
 -0.461538 -0.076923  0.230769      2.000000
 -0.384615 -0.076923  0.230769      2.000000
 -0.307692 -0.076923  0.230769      2.000000
 -0.230769 -0.076923  0.230769      2.000000
 -0.153846 -0.076923  0.230769      2.000000
 -0.076923 -0.076923  0.230769      2.000000
  0.000000 -0.000000  0.307692      2.000000
  0.076923 -0.000000  0.307692      2.000000
  0.153846 -0.000000  0.307692      2.000000
  0.230769 -0.000000  0.307692      2.000000
  0.307692  0.000000  0.307692      2.000000
  0.384615 -0.000000  0.307692      2.000000
  0.461538 -0.000000  0.307692      2.000000
 -0.461538 -0.000000  0.307692      2.000000
 -0.384615  0.000000  0.307692      2.000000
 -0.307692  0.000000  0.307692      2.000000
 -0.230769  0.000000  0.307692      2.000000
 -0.153846  0.000000  0.307692      2.000000
 -0.076923 -0.000000  0.307692      2.000000
  0.000000  0.076923  0.307692      2.000000
  0.076923  0.076923  0.307692      2.000000
  0.153846  0.076923  0.307692      2.000000
  0.230769  0.076923  0.307692      2.000000
  0.307692  0.076923  0.307692      2.000000
  0.384615  0.076923  0.307692      2.000000
  0.461538  0.076923  0.307692      2.000000
 -0.461538  0.076923  0.307692      2.000000
 -0.384615  0.076923  0.307692      2.000000
 -0.307692  0.076923  0.307692      2.000000
 -0.230769  0.076923  0.307692      2.000000
 -0.153846  0.076923  0.307692      2.000000
 -0.076923  0.076923  0.307692      2.000000
  0.000000  0.153846  0.307692      2.000000
  0.076923  0.153846  0.307692      2.000000
  0.153846  0.153846  0.307692      2.000000
  0.230769  0.153846  0.307692      2.000000
  0.307692  0.153846  0.307692      2.000000
  0.384615  0.153846  0.307692      2.000000
  0.461538  0.153846  0.307692      2.000000
 -0.461538  0.153846  0.307692      2.000000
 -0.384615  0.153846  0.307692      2.000000
 -0.307692  0.153846  0.307692      2.000000
 -0.230769  0.153846  0.307692      2.000000
 -0.153846  0.153846  0.307692      2.000000
 -0.076923  0.153846  0.307692      2.000000
  0.000000  0.230769  0.307692      2.000000
  0.076923  0.230769  0.307692      2.000000
  0.153846  0.230769  0.307692      2.000000
  0.230769  0.230769  0.307692      2.000000
  0.307692  0.230769  0.307692      2.000000
  0.384615  0.230769  0.307692      2.000000
  0.461538  0.230769  0.307692      2.000000
 -0.461538  0.230769  0.307692      2.000000
 -0.384615  0.230769  0.307692      2.000000
 -0.307692  0.230769  0.307692      2.000000
 -0.230769  0.230769  0.307692      2.000000
 -0.153846  0.230769  0.307692      2.000000
 -0.076923  0.230769  0.307692      2.000000
  0.000000  0.307692  0.307692      2.000000
  0.076923  0.307692  0.307692      2.000000
  0.153846  0.307692  0.307692      2.000000
  0.230769  0.307692  0.307692      2.000000
  0.307692  0.307692  0.307692      2.000000
  0.384615  0.307692  0.307692      2.000000
  0.461538  0.307692  0.307692      2.000000
 -0.461538  0.307692  0.307692      2.000000
 -0.384615  0.307692  0.307692      2.000000
 -0.307692  0.307692  0.307692      2.000000
 -0.230769  0.307692  0.307692      2.000000
 -0.153846  0.307692  0.307692      2.000000
 -0.076923  0.307692  0.307692      2.000000
  0.000000  0.384615  0.307692      2.000000
  0.076923  0.384615  0.307692      2.000000
  0.153846  0.384615  0.307692      2.000000
  0.230769  0.384615  0.307692      2.000000
  0.307692  0.384615  0.307692      2.000000
  0.384615  0.384615  0.307692      2.000000
  0.461538  0.384615  0.307692      2.000000
 -0.461538  0.384615  0.307692      2.000000
 -0.384615  0.384615  0.307692      2.000000
 -0.307692  0.384615  0.307692      2.000000
 -0.230769  0.384615  0.307692      2.000000
 -0.153846  0.384615  0.307692      2.000000
 -0.076923  0.384615  0.307692      2.000000
 -0.000000  0.461538  0.307692      2.000000
  0.076923  0.461538  0.307692      2.000000
  0.153846  0.461538  0.307692      2.000000
  0.230769  0.461538  0.307692      2.000000
  0.307692  0.461538  0.307692      2.000000
  0.384615  0.461538  0.307692      2.000000
  0.461538  0.461538  0.307692      2.000000
 -0.461538  0.461538  0.307692      2.000000
 -0.384615  0.461538  0.307692      2.000000
 -0.307692  0.461538  0.307692      2.000000
 -0.230769  0.461538  0.307692      2.000000
 -0.153846  0.461538  0.307692      2.000000
 -0.076923  0.461538  0.307692      2.000000
  0.000000 -0.461538  0.307692      2.000000
  0.076923 -0.461538  0.307692      2.000000
  0.153846 -0.461538  0.307692      2.000000
  0.230769 -0.461538  0.307692      2.000000
  0.307692 -0.461538  0.307692      2.000000
  0.384615 -0.461538  0.307692      2.000000
  0.461538 -0.461538  0.307692      2.000000
 -0.461538 -0.461538  0.307692      2.000000
 -0.384615 -0.461538  0.307692      2.000000
 -0.307692 -0.461538  0.307692      2.000000
 -0.230769 -0.461538  0.307692      2.000000
 -0.153846 -0.461538  0.307692      2.000000
 -0.076923 -0.461538  0.307692      2.000000
  0.000000 -0.384615  0.307692      2.000000
  0.076923 -0.384615  0.307692      2.000000
  0.153846 -0.384615  0.307692      2.000000
  0.230769 -0.384615  0.307692      2.000000
  0.307692 -0.384615  0.307692      2.000000
  0.384615 -0.384615  0.307692      2.000000
  0.461538 -0.384615  0.307692      2.000000
 -0.461538 -0.384615  0.307692      2.000000
 -0.384615 -0.384615  0.307692      2.000000
 -0.307692 -0.384615  0.307692      2.000000
 -0.230769 -0.384615  0.307692      2.000000
 -0.153846 -0.384615  0.307692      2.000000
 -0.076923 -0.384615  0.307692      2.000000
  0.000000 -0.307692  0.307692      2.000000
  0.076923 -0.307692  0.307692      2.000000
  0.153846 -0.307692  0.307692      2.000000
  0.230769 -0.307692  0.307692      2.000000
  0.307692 -0.307692  0.307692      2.000000
  0.384615 -0.307692  0.307692      2.000000
  0.461538 -0.307692  0.307692      2.000000
 -0.461538 -0.307692  0.307692      2.000000
 -0.384615 -0.307692  0.307692      2.000000
 -0.307692 -0.307692  0.307692      2.000000
 -0.230769 -0.307692  0.307692      2.000000
 -0.153846 -0.307692  0.307692      2.000000
 -0.076923 -0.307692  0.307692      2.000000
  0.000000 -0.230769  0.307692      2.000000
  0.076923 -0.230769  0.307692      2.000000
  0.153846 -0.230769  0.307692      2.000000
  0.230769 -0.230769  0.307692      2.000000
  0.307692 -0.230769  0.307692      2.000000
  0.384615 -0.230769  0.307692      2.000000
  0.461538 -0.230769  0.307692      2.000000
 -0.461538 -0.230769  0.307692      2.000000
 -0.384615 -0.230769  0.307692      2.000000
 -0.307692 -0.230769  0.307692      2.000000
 -0.230769 -0.230769  0.307692      2.000000
 -0.153846 -0.230769  0.307692      2.000000
 -0.076923 -0.230769  0.307692      2.000000
  0.000000 -0.153846  0.307692      2.000000
  0.076923 -0.153846  0.307692      2.000000
  0.153846 -0.153846  0.307692      2.000000
  0.230769 -0.153846  0.307692      2.000000
  0.307692 -0.153846  0.307692      2.000000
  0.384615 -0.153846  0.307692      2.000000
  0.461538 -0.153846  0.307692      2.000000
 -0.461538 -0.153846  0.307692      2.000000
 -0.384615 -0.153846  0.307692      2.000000
 -0.307692 -0.153846  0.307692      2.000000
 -0.230769 -0.153846  0.307692      2.000000
 -0.153846 -0.153846  0.307692      2.000000
 -0.076923 -0.153846  0.307692      2.000000
  0.000000 -0.076923  0.307692      2.000000
  0.076923 -0.076923  0.307692      2.000000
  0.153846 -0.076923  0.307692      2.000000
  0.230769 -0.076923  0.307692      2.000000
  0.307692 -0.076923  0.307692      2.000000
  0.384615 -0.076923  0.307692      2.000000
  0.461538 -0.076923  0.307692      2.000000
 -0.461538 -0.076923  0.307692      2.000000
 -0.384615 -0.076923  0.307692      2.000000
 -0.307692 -0.076923  0.307692      2.000000
 -0.230769 -0.076923  0.307692      2.000000
 -0.153846 -0.076923  0.307692      2.000000
 -0.076923 -0.076923  0.307692      2.000000
  0.000000 -0.000000  0.384615      2.000000
  0.076923 -0.000000  0.384615      2.000000
  0.153846 -0.000000  0.384615      2.000000
  0.230769 -0.000000  0.384615      2.000000
  0.307692  0.000000  0.384615      2.000000
  0.384615 -0.000000  0.384615      2.000000
  0.461538 -0.000000  0.384615      2.000000
 -0.461538 -0.000000  0.384615      2.000000
 -0.384615 -0.000000  0.384615      2.000000
 -0.307692  0.000000  0.384615      2.000000
 -0.230769  0.000000  0.384615      2.000000
 -0.153846 -0.000000  0.384615      2.000000
 -0.076923 -0.000000  0.384615      2.000000
  0.000000  0.076923  0.384615      2.000000
  0.076923  0.076923  0.384615      2.000000
  0.153846  0.076923  0.384615      2.000000
  0.230769  0.076923  0.384615      2.000000
  0.307692  0.076923  0.384615      2.000000
  0.384615  0.076923  0.384615      2.000000
  0.461538  0.076923  0.384615      2.000000
 -0.461538  0.076923  0.384615      2.000000
 -0.384615  0.076923  0.384615      2.000000
 -0.307692  0.076923  0.384615      2.000000
 -0.230769  0.076923  0.384615      2.000000
 -0.153846  0.076923  0.384615      2.000000
 -0.076923  0.076923  0.384615      2.000000
  0.000000  0.153846  0.384615      2.000000
  0.076923  0.153846  0.384615      2.000000
  0.153846  0.153846  0.384615      2.000000
  0.230769  0.153846  0.384615      2.000000
  0.307692  0.153846  0.384615      2.000000
  0.384615  0.153846  0.384615      2.000000
  0.461538  0.153846  0.384615      2.000000
 -0.461538  0.153846  0.384615      2.000000
 -0.384615  0.153846  0.384615      2.000000
 -0.307692  0.153846  0.384615      2.000000
 -0.230769  0.153846  0.384615      2.000000
 -0.153846  0.153846  0.384615      2.000000
 -0.076923  0.153846  0.384615      2.000000
  0.000000  0.230769  0.384615      2.000000
  0.076923  0.230769  0.384615      2.000000
  0.153846  0.230769  0.384615      2.000000
  0.230769  0.230769  0.384615      2.000000
  0.307692  0.230769  0.384615      2.000000
  0.384615  0.230769  0.384615      2.000000
  0.461538  0.230769  0.384615      2.000000
 -0.461538  0.230769  0.384615      2.000000
 -0.384615  0.230769  0.384615      2.000000
 -0.307692  0.230769  0.384615      2.000000
 -0.230769  0.230769  0.384615      2.000000
 -0.153846  0.230769  0.384615      2.000000
 -0.076923  0.230769  0.384615      2.000000
  0.000000  0.307692  0.384615      2.000000
  0.076923  0.307692  0.384615      2.000000
  0.153846  0.307692  0.384615      2.000000
  0.230769  0.307692  0.384615      2.000000
  0.307692  0.307692  0.384615      2.000000
  0.384615  0.307692  0.384615      2.000000
  0.461538  0.307692  0.384615      2.000000
 -0.461538  0.307692  0.384615      2.000000
 -0.384615  0.307692  0.384615      2.000000
 -0.307692  0.307692  0.384615      2.000000
 -0.230769  0.307692  0.384615      2.000000
 -0.153846  0.307692  0.384615      2.000000
 -0.076923  0.307692  0.384615      2.000000
  0.000000  0.384615  0.384615      2.000000
  0.076923  0.384615  0.384615      2.000000
  0.153846  0.384615  0.384615      2.000000
  0.230769  0.384615  0.384615      2.000000
  0.307692  0.384615  0.384615      2.000000
  0.384615  0.384615  0.384615      2.000000
  0.461538  0.384615  0.384615      2.000000
 -0.461538  0.384615  0.384615      2.000000
 -0.384615  0.384615  0.384615      2.000000
 -0.307692  0.384615  0.384615      2.000000
 -0.230769  0.384615  0.384615      2.000000
 -0.153846  0.384615  0.384615      2.000000
 -0.076923  0.384615  0.384615      2.000000
  0.000000  0.461538  0.384615      2.000000
  0.076923  0.461538  0.384615      2.000000
  0.153846  0.461538  0.384615      2.000000
  0.230769  0.461538  0.384615      2.000000
  0.307692  0.461538  0.384615      2.000000
  0.384615  0.461538  0.384615      2.000000
  0.461538  0.461538  0.384615      2.000000
 -0.461538  0.461538  0.384615      2.000000
 -0.384615  0.461538  0.384615      2.000000
 -0.307692  0.461538  0.384615      2.000000
 -0.230769  0.461538  0.384615      2.000000
 -0.153846  0.461538  0.384615      2.000000
 -0.076923  0.461538  0.384615      2.000000
  0.000000 -0.461538  0.384615      2.000000
  0.076923 -0.461538  0.384615      2.000000
  0.153846 -0.461538  0.384615      2.000000
  0.230769 -0.461538  0.384615      2.000000
  0.307692 -0.461538  0.384615      2.000000
  0.384615 -0.461538  0.384615      2.000000
  0.461538 -0.461538  0.384615      2.000000
 -0.461538 -0.461538  0.384615      2.000000
 -0.384615 -0.461538  0.384615      2.000000
 -0.307692 -0.461538  0.384615      2.000000
 -0.230769 -0.461538  0.384615      2.000000
 -0.153846 -0.461538  0.384615      2.000000
 -0.076923 -0.461538  0.384615      2.000000
  0.000000 -0.384615  0.384615      2.000000
  0.076923 -0.384615  0.384615      2.000000
  0.153846 -0.384615  0.384615      2.000000
  0.230769 -0.384615  0.384615      2.000000
  0.307692 -0.384615  0.384615      2.000000
  0.384615 -0.384615  0.384615      2.000000
  0.461538 -0.384615  0.384615      2.000000
 -0.461538 -0.384615  0.384615      2.000000
 -0.384615 -0.384615  0.384615      2.000000
 -0.307692 -0.384615  0.384615      2.000000
 -0.230769 -0.384615  0.384615      2.000000
 -0.153846 -0.384615  0.384615      2.000000
 -0.076923 -0.384615  0.384615      2.000000
  0.000000 -0.307692  0.384615      2.000000
  0.076923 -0.307692  0.384615      2.000000
  0.153846 -0.307692  0.384615      2.000000
  0.230769 -0.307692  0.384615      2.000000
  0.307692 -0.307692  0.384615      2.000000
  0.384615 -0.307692  0.384615      2.000000
  0.461538 -0.307692  0.384615      2.000000
 -0.461538 -0.307692  0.384615      2.000000
 -0.384615 -0.307692  0.384615      2.000000
 -0.307692 -0.307692  0.384615      2.000000
 -0.230769 -0.307692  0.384615      2.000000
 -0.153846 -0.307692  0.384615      2.000000
 -0.076923 -0.307692  0.384615      2.000000
  0.000000 -0.230769  0.384615      2.000000
  0.076923 -0.230769  0.384615      2.000000
  0.153846 -0.230769  0.384615      2.000000
  0.230769 -0.230769  0.384615      2.000000
  0.307692 -0.230769  0.384615      2.000000
  0.384615 -0.230769  0.384615      2.000000
  0.461538 -0.230769  0.384615      2.000000
 -0.461538 -0.230769  0.384615      2.000000
 -0.384615 -0.230769  0.384615      2.000000
 -0.307692 -0.230769  0.384615      2.000000
 -0.230769 -0.230769  0.384615      2.000000
 -0.153846 -0.230769  0.384615      2.000000
 -0.076923 -0.230769  0.384615      2.000000
  0.000000 -0.153846  0.384615      2.000000
  0.076923 -0.153846  0.384615      2.000000
  0.153846 -0.153846  0.384615      2.000000
  0.230769 -0.153846  0.384615      2.000000
  0.307692 -0.153846  0.384615      2.000000
  0.384615 -0.153846  0.384615      2.000000
  0.461538 -0.153846  0.384615      2.000000
 -0.461538 -0.153846  0.384615      2.000000
 -0.384615 -0.153846  0.384615      2.000000
 -0.307692 -0.153846  0.384615      2.000000
 -0.230769 -0.153846  0.384615      2.000000
 -0.153846 -0.153846  0.384615      2.000000
 -0.076923 -0.153846  0.384615      2.000000
  0.000000 -0.076923  0.384615      2.000000
  0.076923 -0.076923  0.384615      2.000000
  0.153846 -0.076923  0.384615      2.000000
  0.230769 -0.076923  0.384615      2.000000
  0.307692 -0.076923  0.384615      2.000000
  0.384615 -0.076923  0.384615      2.000000
  0.461538 -0.076923  0.384615      2.000000
 -0.461538 -0.076923  0.384615      2.000000
 -0.384615 -0.076923  0.384615      2.000000
 -0.307692 -0.076923  0.384615      2.000000
 -0.230769 -0.076923  0.384615      2.000000
 -0.153846 -0.076923  0.384615      2.000000
 -0.076923 -0.076923  0.384615      2.000000
  0.000000  0.000000  0.461538      2.000000
  0.076923 -0.000000  0.461538      2.000000
  0.153846 -0.000000  0.461538      2.000000
  0.230769 -0.000000  0.461538      2.000000
  0.307692  0.000000  0.461538      2.000000
  0.384615 -0.000000  0.461538      2.000000
  0.461538 -0.000000  0.461538      2.000000
 -0.461538 -0.000000  0.461538      2.000000
 -0.384615 -0.000000  0.461538      2.000000
 -0.307692 -0.000000  0.461538      2.000000
 -0.230769 -0.000000  0.461538      2.000000
 -0.153846  0.000000  0.461538      2.000000
 -0.076923  0.000000  0.461538      2.000000
  0.000000  0.076923  0.461538      2.000000
  0.076923  0.076923  0.461538      2.000000
  0.153846  0.076923  0.461538      2.000000
  0.230769  0.076923  0.461538      2.000000
  0.307692  0.076923  0.461538      2.000000
  0.384615  0.076923  0.461538      2.000000
  0.461538  0.076923  0.461538      2.000000
 -0.461538  0.076923  0.461538      2.000000
 -0.384615  0.076923  0.461538      2.000000
 -0.307692  0.076923  0.461538      2.000000
 -0.230769  0.076923  0.461538      2.000000
 -0.153846  0.076923  0.461538      2.000000
 -0.076923  0.076923  0.461538      2.000000
  0.000000  0.153846  0.461538      2.000000
  0.076923  0.153846  0.461538      2.000000
  0.153846  0.153846  0.461538      2.000000
  0.230769  0.153846  0.461538      2.000000
  0.307692  0.153846  0.461538      2.000000
  0.384615  0.153846  0.461538      2.000000
  0.461538  0.153846  0.461538      2.000000
 -0.461538  0.153846  0.461538      2.000000
 -0.384615  0.153846  0.461538      2.000000
 -0.307692  0.153846  0.461538      2.000000
 -0.230769  0.153846  0.461538      2.000000
 -0.153846  0.153846  0.461538      2.000000
 -0.076923  0.153846  0.461538      2.000000
  0.000000  0.230769  0.461538      2.000000
  0.076923  0.230769  0.461538      2.000000
  0.153846  0.230769  0.461538      2.000000
  0.230769  0.230769  0.461538      2.000000
  0.307692  0.230769  0.461538      2.000000
  0.384615  0.230769  0.461538      2.000000
  0.461538  0.230769  0.461538      2.000000
 -0.461538  0.230769  0.461538      2.000000
 -0.384615  0.230769  0.461538      2.000000
 -0.307692  0.230769  0.461538      2.000000
 -0.230769  0.230769  0.461538      2.000000
 -0.153846  0.230769  0.461538      2.000000
 -0.076923  0.230769  0.461538      2.000000
  0.000000  0.307692  0.461538      2.000000
  0.076923  0.307692  0.461538      2.000000
  0.153846  0.307692  0.461538      2.000000
  0.230769  0.307692  0.461538      2.000000
  0.307692  0.307692  0.461538      2.000000
  0.384615  0.307692  0.461538      2.000000
  0.461538  0.307692  0.461538      2.000000
 -0.461538  0.307692  0.461538      2.000000
 -0.384615  0.307692  0.461538      2.000000
 -0.307692  0.307692  0.461538      2.000000
 -0.230769  0.307692  0.461538      2.000000
 -0.153846  0.307692  0.461538      2.000000
 -0.076923  0.307692  0.461538      2.000000
  0.000000  0.384615  0.461538      2.000000
  0.076923  0.384615  0.461538      2.000000
  0.153846  0.384615  0.461538      2.000000
  0.230769  0.384615  0.461538      2.000000
  0.307692  0.384615  0.461538      2.000000
  0.384615  0.384615  0.461538      2.000000
  0.461538  0.384615  0.461538      2.000000
 -0.461538  0.384615  0.461538      2.000000
 -0.384615  0.384615  0.461538      2.000000
 -0.307692  0.384615  0.461538      2.000000
 -0.230769  0.384615  0.461538      2.000000
 -0.153846  0.384615  0.461538      2.000000
 -0.076923  0.384615  0.461538      2.000000
 -0.000000  0.461538  0.461538      2.000000
  0.076923  0.461538  0.461538      2.000000
  0.153846  0.461538  0.461538      2.000000
  0.230769  0.461538  0.461538      2.000000
  0.307692  0.461538  0.461538      2.000000
  0.384615  0.461538  0.461538      2.000000
  0.461538  0.461538  0.461538      2.000000
 -0.461538  0.461538  0.461538      2.000000
 -0.384615  0.461538  0.461538      2.000000
 -0.307692  0.461538  0.461538      2.000000
 -0.230769  0.461538  0.461538      2.000000
 -0.153846  0.461538  0.461538      2.000000
 -0.076923  0.461538  0.461538      2.000000
  0.000000 -0.461538  0.461538      2.000000
  0.076923 -0.461538  0.461538      2.000000
  0.153846 -0.461538  0.461538      2.000000
  0.230769 -0.461538  0.461538      2.000000
  0.307692 -0.461538  0.461538      2.000000
  0.384615 -0.461538  0.461538      2.000000
  0.461538 -0.461538  0.461538      2.000000
 -0.461538 -0.461538  0.461538      2.000000
 -0.384615 -0.461538  0.461538      2.000000
 -0.307692 -0.461538  0.461538      2.000000
 -0.230769 -0.461538  0.461538      2.000000
 -0.153846 -0.461538  0.461538      2.000000
 -0.076923 -0.461538  0.461538      2.000000
  0.000000 -0.384615  0.461538      2.000000
  0.076923 -0.384615  0.461538      2.000000
  0.153846 -0.384615  0.461538      2.000000
  0.230769 -0.384615  0.461538      2.000000
  0.307692 -0.384615  0.461538      2.000000
  0.384615 -0.384615  0.461538      2.000000
  0.461538 -0.384615  0.461538      2.000000
 -0.461538 -0.384615  0.461538      2.000000
 -0.384615 -0.384615  0.461538      2.000000
 -0.307692 -0.384615  0.461538      2.000000
 -0.230769 -0.384615  0.461538      2.000000
 -0.153846 -0.384615  0.461538      2.000000
 -0.076923 -0.384615  0.461538      2.000000
  0.000000 -0.307692  0.461538      2.000000
  0.076923 -0.307692  0.461538      2.000000
  0.153846 -0.307692  0.461538      2.000000
  0.230769 -0.307692  0.461538      2.000000
  0.307692 -0.307692  0.461538      2.000000
  0.384615 -0.307692  0.461538      2.000000
  0.461538 -0.307692  0.461538      2.000000
 -0.461538 -0.307692  0.461538      2.000000
 -0.384615 -0.307692  0.461538      2.000000
 -0.307692 -0.307692  0.461538      2.000000
 -0.230769 -0.307692  0.461538      2.000000
 -0.153846 -0.307692  0.461538      2.000000
 -0.076923 -0.307692  0.461538      2.000000
  0.000000 -0.230769  0.461538      2.000000
  0.076923 -0.230769  0.461538      2.000000
  0.153846 -0.230769  0.461538      2.000000
  0.230769 -0.230769  0.461538      2.000000
  0.307692 -0.230769  0.461538      2.000000
  0.384615 -0.230769  0.461538      2.000000
  0.461538 -0.230769  0.461538      2.000000
 -0.461538 -0.230769  0.461538      2.000000
 -0.384615 -0.230769  0.461538      2.000000
 -0.307692 -0.230769  0.461538      2.000000
 -0.230769 -0.230769  0.461538      2.000000
 -0.153846 -0.230769  0.461538      2.000000
 -0.076923 -0.230769  0.461538      2.000000
  0.000000 -0.153846  0.461538      2.000000
  0.076923 -0.153846  0.461538      2.000000
  0.153846 -0.153846  0.461538      2.000000
  0.230769 -0.153846  0.461538      2.000000
  0.307692 -0.153846  0.461538      2.000000
  0.384615 -0.153846  0.461538      2.000000
  0.461538 -0.153846  0.461538      2.000000
 -0.461538 -0.153846  0.461538      2.000000
 -0.384615 -0.153846  0.461538      2.000000
 -0.307692 -0.153846  0.461538      2.000000
 -0.230769 -0.153846  0.461538      2.000000
 -0.153846 -0.153846  0.461538      2.000000
 -0.076923 -0.153846  0.461538      2.000000
  0.000000 -0.076923  0.461538      2.000000
  0.076923 -0.076923  0.461538      2.000000
  0.153846 -0.076923  0.461538      2.000000
  0.230769 -0.076923  0.461538      2.000000
  0.307692 -0.076923  0.461538      2.000000
  0.384615 -0.076923  0.461538      2.000000
  0.461538 -0.076923  0.461538      2.000000
 -0.461538 -0.076923  0.461538      2.000000
 -0.384615 -0.076923  0.461538      2.000000
 -0.307692 -0.076923  0.461538      2.000000
 -0.230769 -0.076923  0.461538      2.000000
 -0.153846 -0.076923  0.461538      2.000000
 -0.076923 -0.076923  0.461538      2.000000
 
 Following cartesian coordinates:
            Coordinates               Weight
  0.000000  0.000000  0.000000      1.000000
 -0.018958  0.018958  0.018958      2.000000
 -0.037915  0.037915  0.037915      2.000000
 -0.056873  0.056873  0.056873      2.000000
 -0.075831  0.075831  0.075831      2.000000
 -0.094788  0.094788  0.094788      2.000000
 -0.113746  0.113746  0.113746      2.000000
  0.018958 -0.018958  0.018958      2.000000
 -0.000000 -0.000000  0.037915      2.000000
 -0.018958  0.018958  0.056873      2.000000
 -0.037915  0.037915  0.075831      2.000000
 -0.056873  0.056873  0.094788      2.000000
 -0.075831  0.075830  0.113746      2.000000
 -0.094788  0.094788  0.132703      2.000000
  0.132704 -0.132703 -0.094788      2.000000
  0.113746 -0.113746 -0.075831      2.000000
  0.094788 -0.094788 -0.056873      2.000000
  0.075831 -0.075831 -0.037915      2.000000
  0.056873 -0.056873 -0.018958      2.000000
  0.037915 -0.037915  0.000000      2.000000
  0.037915 -0.037915  0.037915      2.000000
  0.018958 -0.018958  0.056873      2.000000
 -0.000000 -0.000000  0.075831      2.000000
 -0.018958  0.018958  0.094788      2.000000
 -0.037915  0.037915  0.113746      2.000000
 -0.056873  0.056873  0.132703      2.000000
 -0.075831  0.075830  0.151661      2.000000
  0.151661 -0.151661 -0.075831      2.000000
  0.132704 -0.132703 -0.056873      2.000000
  0.113746 -0.113746 -0.037915      2.000000
  0.094788 -0.094788 -0.018958      2.000000
  0.075831 -0.075831  0.000000      2.000000
  0.056873 -0.056873  0.018958      2.000000
  0.056873 -0.056873  0.056873      2.000000
  0.037915 -0.037915  0.075831      2.000000
  0.018958 -0.018958  0.094788      2.000000
 -0.000000 -0.000000  0.113746      2.000000
 -0.018958  0.018958  0.132703      2.000000
 -0.037915  0.037915  0.151661      2.000000
 -0.056873  0.056873  0.170619      2.000000
  0.170619 -0.170619 -0.056873      2.000000
  0.151661 -0.151661 -0.037915      2.000000
  0.132704 -0.132703 -0.018958      2.000000
  0.113746 -0.113746  0.000000      2.000000
  0.094788 -0.094788  0.018958      2.000000
  0.075831 -0.075831  0.037915      2.000000
  0.075831 -0.075831  0.075831      2.000000
  0.056873 -0.056873  0.094788      2.000000
  0.037915 -0.037915  0.113746      2.000000
  0.018958 -0.018958  0.132703      2.000000
 -0.000000 -0.000000  0.151661      2.000000
 -0.018958  0.018957  0.170619      2.000000
 -0.037915  0.037915  0.189576      2.000000
  0.189576 -0.189576 -0.037915      2.000000
  0.170619 -0.170619 -0.018958      2.000000
  0.151661 -0.151661  0.000000      2.000000
  0.132703 -0.132704  0.018958      2.000000
  0.113746 -0.113746  0.037915      2.000000
  0.094788 -0.094788  0.056873      2.000000
  0.094788 -0.094788  0.094788      2.000000
  0.075830 -0.075831  0.113746      2.000000
  0.056873 -0.056873  0.132703      2.000000
  0.037915 -0.037915  0.151661      2.000000
  0.018957 -0.018958  0.170619      2.000000
 -0.000000 -0.000000  0.189576      2.000000
 -0.018958  0.018957  0.208534      2.000000
  0.208534 -0.208534 -0.018958      2.000000
  0.189576 -0.189576  0.000000      2.000000
  0.170619 -0.170619  0.018958      2.000000
  0.151661 -0.151661  0.037915      2.000000
  0.132703 -0.132704  0.056873      2.000000
  0.113746 -0.113746  0.075831      2.000000
  0.113746 -0.113746  0.113746      2.000000
  0.094788 -0.094788  0.132703      2.000000
  0.075830 -0.075831  0.151661      2.000000
  0.056873 -0.056873  0.170619      2.000000
  0.037915 -0.037915  0.189576      2.000000
  0.018957 -0.018958  0.208534      2.000000
 -0.000000 -0.000000  0.227492      2.000000
  0.227492 -0.227492  0.000000      2.000000
  0.208534 -0.208534  0.018958      2.000000
  0.189576 -0.189576  0.037915      2.000000
  0.170619 -0.170619  0.056873      2.000000
  0.151661 -0.151661  0.075831      2.000000
  0.132703 -0.132704  0.094788      2.000000
  0.018958  0.018958 -0.018958      2.000000
 -0.000000  0.037915 -0.000000      2.000000
 -0.018958  0.056873  0.018958      2.000000
 -0.037915  0.075831  0.037915      2.000000
 -0.056873  0.094788  0.056873      2.000000
 -0.075831  0.113746  0.075830      2.000000
 -0.094788  0.132703  0.094788      2.000000
  0.132704 -0.094788 -0.132703      2.000000
  0.113746 -0.075831 -0.113746      2.000000
  0.094788 -0.056873 -0.094788      2.000000
  0.075831 -0.037915 -0.075831      2.000000
  0.056873 -0.018958 -0.056873      2.000000
  0.037915 -0.000000 -0.037915      2.000000
  0.037915 -0.000000 -0.000000      2.000000
  0.018958  0.018958  0.018958      2.000000
 -0.000000  0.037915  0.037915      2.000000
 -0.018958  0.056873  0.056873      2.000000
 -0.037915  0.075830  0.075830      2.000000
 -0.056873  0.094788  0.094788      2.000000
 -0.075831  0.113746  0.113746      2.000000
  0.151661 -0.113746 -0.113746      2.000000
  0.132704 -0.094788 -0.094788      2.000000
  0.113746 -0.075831 -0.075831      2.000000
  0.094788 -0.056873 -0.056873      2.000000
  0.075831 -0.037915 -0.037915      2.000000
  0.056873 -0.018958 -0.018958      2.000000
  0.056873 -0.018958  0.018958      2.000000
  0.037915 -0.000000  0.037915      2.000000
  0.018958  0.018958  0.056873      2.000000
 -0.000000  0.037915  0.075830      2.000000
 -0.018958  0.056873  0.094788      2.000000
 -0.037915  0.075830  0.113746      2.000000
 -0.056873  0.094788  0.132703      2.000000
  0.170619 -0.132703 -0.094788      2.000000
  0.151661 -0.113746 -0.075831      2.000000
  0.132704 -0.094788 -0.056873      2.000000
  0.113746 -0.075831 -0.037915      2.000000
  0.094788 -0.056873 -0.018958      2.000000
  0.075831 -0.037915 -0.000000      2.000000
  0.075831 -0.037915  0.037915      2.000000
  0.056873 -0.018958  0.056873      2.000000
  0.037915 -0.000000  0.075830      2.000000
  0.018958  0.018958  0.094788      2.000000
 -0.000000  0.037915  0.113746      2.000000
 -0.018958  0.056873  0.132703      2.000000
 -0.037915  0.075830  0.151661      2.000000
  0.189576 -0.151661 -0.075831      2.000000
  0.170619 -0.132703 -0.056873      2.000000
  0.151661 -0.113746 -0.037915      2.000000
  0.132703 -0.094788 -0.018958      2.000000
  0.113746 -0.075831 -0.000000      2.000000
  0.094788 -0.056873  0.018958      2.000000
  0.094788 -0.056873  0.056873      2.000000
  0.075830 -0.037915  0.075830      2.000000
  0.056873 -0.018958  0.094788      2.000000
  0.037915 -0.000000  0.113746      2.000000
  0.018957  0.018957  0.132703      2.000000
 -0.000000  0.037915  0.151661      2.000000
 -0.018958  0.056873  0.170619      2.000000
  0.208534 -0.170619 -0.056873      2.000000
  0.189576 -0.151661 -0.037915      2.000000
  0.170619 -0.132704 -0.018958      2.000000
  0.151661 -0.113746 -0.000000      2.000000
  0.132703 -0.094788  0.018958      2.000000
  0.113746 -0.075831  0.037915      2.000000
  0.113746 -0.075831  0.075830      2.000000
  0.094788 -0.056873  0.094788      2.000000
  0.075830 -0.037915  0.113746      2.000000
  0.056873 -0.018958  0.132703      2.000000
  0.037915 -0.000000  0.151661      2.000000
  0.018957  0.018957  0.170619      2.000000
 -0.000000  0.037915  0.189576      2.000000
  0.227492 -0.189576 -0.037915      2.000000
  0.208534 -0.170619 -0.018958      2.000000
  0.189576 -0.151661 -0.000000      2.000000
  0.170619 -0.132704  0.018958      2.000000
  0.151661 -0.113746  0.037915      2.000000
  0.132703 -0.094788  0.056873      2.000000
  0.132703 -0.094788  0.094788      2.000000
  0.113746 -0.075831  0.113746      2.000000
  0.094788 -0.056873  0.132703      2.000000
  0.075830 -0.037915  0.151661      2.000000
  0.056873 -0.018958  0.170619      2.000000
  0.037915 -0.000000  0.189576      2.000000
  0.018957  0.018957  0.208534      2.000000
  0.246449 -0.208534 -0.018958      2.000000
  0.227492 -0.189576 -0.000000      2.000000
  0.208534 -0.170619  0.018958      2.000000
  0.189576 -0.151661  0.037915      2.000000
  0.170619 -0.132704  0.056873      2.000000
  0.151661 -0.113746  0.075830      2.000000
 -0.094788  0.132704 -0.132703      2.000000
 -0.113746  0.151661 -0.113746      2.000000
 -0.132703  0.170619 -0.094788      2.000000
 -0.151661  0.189576 -0.075831      2.000000
 -0.170619  0.208534 -0.056873      2.000000
 -0.189576  0.227492 -0.037915      2.000000
 -0.208534  0.246449 -0.018958      2.000000
  0.018958  0.018958 -0.246449      2.000000
  0.000000  0.037915 -0.227492      2.000000
 -0.018957  0.056873 -0.208534      2.000000
 -0.037915  0.075831 -0.189576      2.000000
 -0.056873  0.094788 -0.170619      2.000000
 -0.075830  0.113746 -0.151661      2.000000
 -0.075831  0.113746 -0.113746      2.000000
 -0.094788  0.132704 -0.094788      2.000000
 -0.113746  0.151661 -0.075831      2.000000
 -0.132703  0.170619 -0.056873      2.000000
 -0.151661  0.189576 -0.037915      2.000000
 -0.170619  0.208534 -0.018958      2.000000
 -0.189576  0.227492 -0.000000      2.000000
  0.037915  0.000000 -0.227492      2.000000
  0.018958  0.018958 -0.208534      2.000000
  0.000000  0.037915 -0.189576      2.000000
 -0.018958  0.056873 -0.170619      2.000000
 -0.037915  0.075831 -0.151661      2.000000
 -0.056873  0.094788 -0.132703      2.000000
 -0.056873  0.094788 -0.094788      2.000000
 -0.075831  0.113746 -0.075831      2.000000
 -0.094788  0.132704 -0.056873      2.000000
 -0.113746  0.151661 -0.037915      2.000000
 -0.132704  0.170619 -0.018958      2.000000
 -0.151661  0.189576 -0.000000      2.000000
 -0.170619  0.208534  0.018958      2.000000
  0.056873 -0.018957 -0.208534      2.000000
  0.037915  0.000000 -0.189576      2.000000
  0.018958  0.018958 -0.170619      2.000000
  0.000000  0.037915 -0.151661      2.000000
 -0.018958  0.056873 -0.132703      2.000000
 -0.037915  0.075831 -0.113746      2.000000
 -0.037915  0.075831 -0.075831      2.000000
 -0.056873  0.094788 -0.056873      2.000000
 -0.075831  0.113746 -0.037915      2.000000
 -0.094788  0.132703 -0.018958      2.000000
 -0.113746  0.151661 -0.000000      2.000000
 -0.132704  0.170619  0.018958      2.000000
 -0.151661  0.189576  0.037915      2.000000
  0.075831 -0.037915 -0.189576      2.000000
  0.056873 -0.018958 -0.170619      2.000000
  0.037915  0.000000 -0.151661      2.000000
  0.018958  0.018958 -0.132703      2.000000
  0.000000  0.037915 -0.113746      2.000000
 -0.018958  0.056873 -0.094788      2.000000
 -0.018958  0.056873 -0.056873      2.000000
 -0.037915  0.075831 -0.037915      2.000000
 -0.056873  0.094788 -0.018958      2.000000
 -0.075831  0.113746 -0.000000      2.000000
 -0.094788  0.132703  0.018958      2.000000
 -0.113746  0.151661  0.037915      2.000000
 -0.132704  0.170619  0.056873      2.000000
  0.094788 -0.056873 -0.170619      2.000000
  0.075831 -0.037915 -0.151661      2.000000
  0.056873 -0.018958 -0.132703      2.000000
  0.037915  0.000000 -0.113746      2.000000
  0.018958  0.018958 -0.094788      2.000000
  0.000000  0.037915 -0.075831      2.000000
 -0.000000  0.037915 -0.037915      2.000000
 -0.018958  0.056873 -0.018958      2.000000
 -0.037915  0.075831 -0.000000      2.000000
 -0.056873  0.094788  0.018958      2.000000
 -0.075831  0.113746  0.037915      2.000000
 -0.094788  0.132703  0.056873      2.000000
 -0.113746  0.151661  0.075830      2.000000
  0.113746 -0.075830 -0.151661      2.000000
  0.094788 -0.056873 -0.132703      2.000000
  0.075831 -0.037915 -0.113746      2.000000
  0.056873 -0.018958 -0.094788      2.000000
  0.037915  0.000000 -0.075831      2.000000
  0.018958  0.018958 -0.056873      2.000000
  0.037915  0.037915 -0.037915      2.000000
  0.018958  0.056873 -0.018958      2.000000
 -0.000000  0.075831 -0.000000      2.000000
 -0.018958  0.094788  0.018958      2.000000
 -0.037915  0.113746  0.037915      2.000000
 -0.056873  0.132703  0.056873      2.000000
 -0.075831  0.151661  0.075830      2.000000
  0.151661 -0.075831 -0.151661      2.000000
  0.132704 -0.056873 -0.132703      2.000000
  0.113746 -0.037915 -0.113746      2.000000
  0.094788 -0.018958 -0.094788      2.000000
  0.075831 -0.000000 -0.075831      2.000000
  0.056873  0.018958 -0.056873      2.000000
  0.056873  0.018958 -0.018958      2.000000
  0.037915  0.037915 -0.000000      2.000000
  0.018958  0.056873  0.018958      2.000000
 -0.000000  0.075830  0.037915      2.000000
 -0.018958  0.094788  0.056873      2.000000
 -0.037915  0.113746  0.075830      2.000000
 -0.056873  0.132703  0.094788      2.000000
  0.170619 -0.094788 -0.132703      2.000000
  0.151661 -0.075831 -0.113746      2.000000
  0.132704 -0.056873 -0.094788      2.000000
  0.113746 -0.037915 -0.075831      2.000000
  0.094788 -0.018958 -0.056873      2.000000
  0.075831 -0.000000 -0.037915      2.000000
  0.075831 -0.000000 -0.000000      2.000000
  0.056873  0.018958  0.018958      2.000000
  0.037915  0.037915  0.037915      2.000000
  0.018958  0.056873  0.056873      2.000000
 -0.000000  0.075830  0.075830      2.000000
 -0.018958  0.094788  0.094788      2.000000
 -0.037915  0.113746  0.113746      2.000000
  0.189576 -0.113746 -0.113746      2.000000
  0.170619 -0.094788 -0.094788      2.000000
  0.151661 -0.075831 -0.075831      2.000000
  0.132703 -0.056873 -0.056873      2.000000
  0.113746 -0.037915 -0.037915      2.000000
  0.094788 -0.018958 -0.018958      2.000000
  0.094788 -0.018958  0.018958      2.000000
  0.075830 -0.000000  0.037915      2.000000
  0.056873  0.018958  0.056873      2.000000
  0.037915  0.037915  0.075830      2.000000
  0.018957  0.056873  0.094788      2.000000
 -0.000000  0.075830  0.113746      2.000000
 -0.018958  0.094788  0.132703      2.000000
  0.208534 -0.132703 -0.094788      2.000000
  0.189576 -0.113746 -0.075831      2.000000
  0.170619 -0.094788 -0.056873      2.000000
  0.151661 -0.075831 -0.037915      2.000000
  0.132703 -0.056873 -0.018958      2.000000
  0.113746 -0.037915 -0.000000      2.000000
  0.113746 -0.037915  0.037915      2.000000
  0.094788 -0.018958  0.056873      2.000000
  0.075830 -0.000000  0.075830      2.000000
  0.056873  0.018957  0.094788      2.000000
  0.037915  0.037915  0.113746      2.000000
  0.018957  0.056873  0.132703      2.000000
 -0.000000  0.075830  0.151661      2.000000
  0.227492 -0.151661 -0.075831      2.000000
  0.208534 -0.132704 -0.056873      2.000000
  0.189576 -0.113746 -0.037915      2.000000
  0.170619 -0.094788 -0.018958      2.000000
  0.151661 -0.075831 -0.000000      2.000000
  0.132703 -0.056873  0.018958      2.000000
  0.132703 -0.056873  0.056873      2.000000
  0.113746 -0.037915  0.075830      2.000000
  0.094788 -0.018958  0.094788      2.000000
  0.075830 -0.000000  0.113746      2.000000
  0.056873  0.018957  0.132703      2.000000
  0.037915  0.037915  0.151661      2.000000
  0.018957  0.056873  0.170619      2.000000
  0.246449 -0.170619 -0.056873      2.000000
  0.227492 -0.151661 -0.037915      2.000000
  0.208534 -0.132704 -0.018958      2.000000
  0.189576 -0.113746 -0.000000      2.000000
  0.170619 -0.094788  0.018958      2.000000
  0.151661 -0.075831  0.037915      2.000000
  0.151661 -0.075831  0.075830      2.000000
  0.132703 -0.056873  0.094788      2.000000
  0.113746 -0.037915  0.113746      2.000000
  0.094788 -0.018958  0.132703      2.000000
  0.075830 -0.000000  0.151661      2.000000
  0.056873  0.018957  0.170619      2.000000
  0.037915  0.037915  0.189576      2.000000
  0.265407 -0.189576 -0.037915      2.000000
  0.246449 -0.170619 -0.018958      2.000000
  0.227492 -0.151661 -0.000000      2.000000
  0.208534 -0.132704  0.018958      2.000000
  0.189576 -0.113746  0.037915      2.000000
  0.170619 -0.094788  0.056873      2.000000
 -0.075831  0.151661 -0.151661      2.000000
 -0.094788  0.170619 -0.132703      2.000000
 -0.113746  0.189576 -0.113746      2.000000
 -0.132703  0.208534 -0.094788      2.000000
 -0.151661  0.227492 -0.075831      2.000000
 -0.170619  0.246449 -0.056873      2.000000
 -0.189576  0.265407 -0.037915      2.000000
  0.037915  0.037915 -0.265407      2.000000
  0.018958  0.056873 -0.246449      2.000000
  0.000000  0.075831 -0.227492      2.000000
 -0.018958  0.094788 -0.208534      2.000000
 -0.037915  0.113746 -0.189576      2.000000
 -0.056873  0.132704 -0.170619      2.000000
 -0.056873  0.132704 -0.132703      2.000000
 -0.075831  0.151661 -0.113746      2.000000
 -0.094788  0.170619 -0.094788      2.000000
 -0.113746  0.189576 -0.075831      2.000000
 -0.132704  0.208534 -0.056873      2.000000
 -0.151661  0.227492 -0.037915      2.000000
 -0.170619  0.246449 -0.018958      2.000000
  0.056873  0.018958 -0.246449      2.000000
  0.037915  0.037915 -0.227492      2.000000
  0.018958  0.056873 -0.208534      2.000000
  0.000000  0.075831 -0.189576      2.000000
 -0.018958  0.094788 -0.170619      2.000000
 -0.037915  0.113746 -0.151661      2.000000
 -0.037915  0.113746 -0.113746      2.000000
 -0.056873  0.132704 -0.094788      2.000000
 -0.075831  0.151661 -0.075831      2.000000
 -0.094788  0.170619 -0.056873      2.000000
 -0.113746  0.189576 -0.037915      2.000000
 -0.132704  0.208534 -0.018958      2.000000
 -0.151661  0.227492 -0.000000      2.000000
  0.075831  0.000000 -0.227492      2.000000
  0.056873  0.018958 -0.208534      2.000000
  0.037915  0.037915 -0.189576      2.000000
  0.018958  0.056873 -0.170619      2.000000
  0.000000  0.075831 -0.151661      2.000000
 -0.018958  0.094788 -0.132703      2.000000
 -0.018958  0.094788 -0.094788      2.000000
 -0.037915  0.113746 -0.075831      2.000000
 -0.056873  0.132703 -0.056873      2.000000
 -0.075831  0.151661 -0.037915      2.000000
 -0.094788  0.170619 -0.018958      2.000000
 -0.113746  0.189576 -0.000000      2.000000
 -0.132704  0.208534  0.018958      2.000000
  0.094788 -0.018958 -0.208534      2.000000
  0.075831  0.000000 -0.189576      2.000000
  0.056873  0.018958 -0.170619      2.000000
  0.037915  0.037915 -0.151661      2.000000
  0.018958  0.056873 -0.132703      2.000000
  0.000000  0.075831 -0.113746      2.000000
 -0.000000  0.075831 -0.075831      2.000000
 -0.018958  0.094788 -0.056873      2.000000
 -0.037915  0.113746 -0.037915      2.000000
 -0.056873  0.132703 -0.018958      2.000000
 -0.075831  0.151661 -0.000000      2.000000
 -0.094788  0.170619  0.018958      2.000000
 -0.113746  0.189576  0.037915      2.000000
  0.113746 -0.037915 -0.189576      2.000000
  0.094788 -0.018958 -0.170619      2.000000
  0.075831  0.000000 -0.151661      2.000000
  0.056873  0.018958 -0.132703      2.000000
  0.037915  0.037915 -0.113746      2.000000
  0.018958  0.056873 -0.094788      2.000000
  0.018958  0.056873 -0.056873      2.000000
 -0.000000  0.075831 -0.037915      2.000000
 -0.018958  0.094788 -0.018958      2.000000
 -0.037915  0.113746 -0.000000      2.000000
 -0.056873  0.132703  0.018958      2.000000
 -0.075831  0.151661  0.037915      2.000000
 -0.094788  0.170619  0.056873      2.000000
  0.132704 -0.056873 -0.170619      2.000000
  0.113746 -0.037915 -0.151661      2.000000
  0.094788 -0.018958 -0.132703      2.000000
  0.075831  0.000000 -0.113746      2.000000
  0.056873  0.018958 -0.094788      2.000000
  0.037915  0.037915 -0.075831      2.000000
  0.056873  0.056873 -0.056873      2.000000
  0.037915  0.075831 -0.037915      2.000000
  0.018958  0.094788 -0.018958      2.000000
 -0.000000  0.113746 -0.000000      2.000000
[...]
      5      -1.8345      2.00000
      6      11.6123      0.00000
      7      16.3583      0.00000
      8      19.5895      0.00000
      9      19.6333      0.00000
     10      28.1920      0.00000
     11      32.1882      0.00000
     12      32.3311      0.00000

 k-point  1075 :       0.0769   -0.1538    0.4615
  band No.  band energies     occupation 
      1     -43.3501      2.00000
      2     -22.0712      2.00000
      3      -3.8560      2.00000
      4      -2.6405      2.00000
      5      -1.9054      2.00000
      6      12.2460      0.00000
      7      15.9692      0.00000
      8      19.5188      0.00000
      9      19.8456      0.00000
     10      28.0135      0.00000
     11      30.1354      0.00000
     12      34.3030      0.00000

 k-point  1076 :       0.1538   -0.1538    0.4615
  band No.  band energies     occupation 
      1     -43.3466      2.00000
      2     -22.0185      2.00000
      3      -3.7589      2.00000
      4      -3.0321      2.00000
      5      -2.0387      2.00000
      6      13.1658      0.00000
      7      15.6000      0.00000
      8      19.1950      0.00000
      9      20.0137      0.00000
     10      27.4314      0.00000
     11      29.3168      0.00000
     12      36.7203      0.00000

 k-point  1077 :       0.2308   -0.1538    0.4615
  band No.  band energies     occupation 
      1     -43.3436      2.00000
      2     -21.9675      2.00000
      3      -3.8693      2.00000
      4      -3.1411      2.00000
      5      -2.1922      2.00000
      6      14.1555      0.00000
      7      15.4111      0.00000
      8      18.5812      0.00000
      9      20.1705      0.00000
     10      25.6607      0.00000
     11      30.7853      0.00000
     12      35.9649      0.00000

 k-point  1078 :       0.3077   -0.1538    0.4615
  band No.  band energies     occupation 
      1     -43.3416      2.00000
      2     -21.9297      2.00000
      3      -4.1456      2.00000
      4      -2.9794      2.00000
      5      -2.3135      2.00000
      6      14.8023      0.00000
      7      15.4989      0.00000
      8      18.0832      0.00000
      9      20.3379      0.00000
     10      24.0925      0.00000
     11      32.9352      0.00000
     12      35.2143      0.00000

 k-point  1079 :       0.3846   -0.1538    0.4615
  band No.  band energies     occupation 
      1     -43.3411      2.00000
      2     -21.9147      2.00000
      3      -4.3258      2.00000
      4      -2.8146      2.00000
      5      -2.3684      2.00000
      6      14.9847      0.00000
      7      15.4978      0.00000
      8      18.2141      0.00000
      9      20.5124      0.00000
     10      22.8671      0.00000
     11      34.7778      0.00000
     12      35.5019      0.00000

 k-point  1080 :       0.4615   -0.1538    0.4615
  band No.  band energies     occupation 
      1     -43.3424      2.00000
      2     -21.9262      2.00000
      3      -4.3342      2.00000
      4      -2.7276      2.00000
      5      -2.3638      2.00000
      6      14.7339      0.00000
      7      15.5952      0.00000
      8      18.5204      0.00000
      9      20.6201      0.00000
     10      22.3433      0.00000
     11      34.7553      0.00000
     12      38.0945      0.00000

 k-point  1081 :      -0.4615   -0.1538    0.4615
  band No.  band energies     occupation 
      1     -43.3449      2.00000
      2     -21.9610      2.00000
      3      -4.1708      2.00000
      4      -2.7372      2.00000
      5      -2.3057      2.00000
      6      14.2820      0.00000
      7      15.7725      0.00000
      8      18.5682      0.00000
      9      20.5080      0.00000
     10      22.9517      0.00000
     11      34.0663      0.00000
     12      36.3476      0.00000

 k-point  1082 :      -0.3846   -0.1538    0.4615
  band No.  band energies     occupation 
      1     -43.3482      2.00000
      2     -22.0106      2.00000
      3      -3.8924      2.00000
      4      -2.8394      2.00000
      5      -2.1686      2.00000
      6      13.7114      0.00000
      7      15.7328      0.00000
      8      18.8360      0.00000
      9      20.3498      0.00000
     10      24.2785      0.00000
     11      32.1922      0.00000
     12      36.7461      0.00000

 k-point  1083 :      -0.3077   -0.1538    0.4615
  band No.  band energies     occupation 
      1     -43.3515      2.00000
      2     -22.0636      2.00000
      3      -3.6643      2.00000
      4      -2.8753      2.00000
      5      -1.9853      2.00000
      6      12.9405      0.00000
      7      15.7322      0.00000
      8      19.3370      0.00000
      9      20.1826      0.00000
     10      26.0579      0.00000
     11      30.6015      0.00000
     12      35.7682      0.00000

 k-point  1084 :      -0.2308   -0.1538    0.4615
  band No.  band energies     occupation 
      1     -43.3541      2.00000
      2     -22.1078      2.00000
      3      -3.6910      2.00000
      4      -2.6472      2.00000
      5      -1.8215      2.00000
      6      12.1452      0.00000
      7      15.9523      0.00000
      8      19.6460      0.00000
      9      20.0005      0.00000
     10      28.1669      0.00000
     11      29.8322      0.00000
     12      33.0785      0.00000

 k-point  1085 :      -0.1538   -0.1538    0.4615
  band No.  band energies     occupation 
      1     -43.3554      2.00000
      2     -22.1338      2.00000
      3      -3.8253      2.00000
      4      -2.3342      2.00000
      5      -1.7458      2.00000
      6      11.5724      0.00000
      7      16.2933      0.00000
      8      19.6164      0.00000
      9      19.8109      0.00000
     10      29.4433      0.00000
     11      30.8473      0.00000
     12      31.1386      0.00000

 k-point  1086 :      -0.0769   -0.1538    0.4615
  band No.  band energies     occupation 
      1     -43.3550      2.00000
      2     -22.1358      2.00000
      3      -3.9199      2.00000
      4      -2.1509      2.00000
      5      -1.7839      2.00000
      6      11.3762      0.00000
      7      16.5075      0.00000
      8      19.4910      0.00000
      9      19.6807      0.00000
     10      29.0307      0.00000
     11      30.7991      0.00000
     12      32.9027      0.00000

 k-point  1087 :       0.0000   -0.0769    0.4615
  band No.  band energies     occupation 
      1     -43.3567      2.00000
      2     -22.1646      2.00000
      3      -3.9933      2.00000
      4      -1.8597      2.00000
      5      -1.7122      2.00000
      6      10.8718      0.00000
      7      16.8861      0.00000
      8      19.3758      0.00000
      9      19.4540      0.00000
     10      30.5807      0.00000
     11      31.4972      0.00000
     12      31.6663      0.00000

 k-point  1088 :       0.0769   -0.0769    0.4615
  band No.  band energies     occupation 
      1     -43.3550      2.00000
      2     -22.1359      2.00000
      3      -3.9199      2.00000
      4      -2.1510      2.00000
      5      -1.7837      2.00000
      6      11.3761      0.00000
      7      16.5076      0.00000
      8      19.4925      0.00000
      9      19.6794      0.00000
     10      29.0304      0.00000
     11      30.7980      0.00000
     12      32.9042      0.00000

 k-point  1089 :       0.1538   -0.0769    0.4615
  band No.  band energies     occupation 
      1     -43.3520      2.00000
      2     -22.0843      2.00000
      3      -3.8322      2.00000
      4      -2.5468      2.00000
      5      -1.9410      2.00000
      6      12.2644      0.00000
      7      16.0712      0.00000
      8      19.4996      0.00000
      9      19.9362      0.00000
     10      26.6441      0.00000
     11      31.3494      0.00000
     12      34.6933      0.00000

 k-point  1090 :       0.2308   -0.0769    0.4615
  band No.  band energies     occupation 
      1     -43.3483      2.00000
      2     -22.0212      2.00000
      3      -3.8952      2.00000
      4      -2.7850      2.00000
      5      -2.1314      2.00000
      6      13.3328      0.00000
      7      15.7859      0.00000
      8      19.1466      0.00000
      9      20.2313      0.00000
     10      24.5573      0.00000
     11      32.5891      0.00000
     12      36.2499      0.00000

 k-point  1091 :       0.3077   -0.0769    0.4615
  band No.  band energies     occupation 
      1     -43.3449      2.00000
      2     -21.9610      2.00000
      3      -4.1707      2.00000
      4      -2.7375      2.00000
      5      -2.3053      2.00000
      6      14.2822      0.00000
      7      15.7724      0.00000
      8      18.5684      0.00000
      9      20.5088      0.00000
     10      22.9511      0.00000
     11      34.0669      0.00000
     12      36.3488      0.00000

 k-point  1092 :       0.3846   -0.0769    0.4615
  band No.  band energies     occupation 
      1     -43.3425      2.00000
      2     -21.9176      2.00000
      3      -4.4310      2.00000
      4      -2.6112      2.00000
      5      -2.4228      2.00000
      6      14.8147      0.00000
      7      15.9614      0.00000
      8      18.1862      0.00000
      9      20.7222      0.00000
     10      21.8332      0.00000
     11      34.4736      0.00000
     12      37.6786      0.00000

 k-point  1093 :       0.4615   -0.0769    0.4615
  band No.  band energies     occupation 
      1     -43.3415      2.00000
      2     -21.9017      2.00000
      3      -4.5299      2.00000
      4      -2.5594      2.00000
      5      -2.4597      2.00000
      6      14.9800      0.00000
      7      16.0085      0.00000
      8      18.1566      0.00000
      9      20.8501      0.00000
     10      21.3408      0.00000
     11      34.3787      0.00000
     12      38.8527      0.00000

 k-point  1094 :      -0.4615   -0.0769    0.4615
  band No.  band energies     occupation 
      1     -43.3425      2.00000
      2     -21.9176      2.00000
      3      -4.4310      2.00000
      4      -2.6112      2.00000
      5      -2.4228      2.00000
      6      14.8147      0.00000
      7      15.9615      0.00000
      8      18.1861      0.00000
      9      20.7223      0.00000
     10      21.8330      0.00000
     11      34.4735      0.00000
     12      37.6779      0.00000

 k-point  1095 :      -0.3846   -0.0769    0.4615
  band No.  band energies     occupation 
      1     -43.3449      2.00000
      2     -21.9610      2.00000
      3      -4.1708      2.00000
      4      -2.7375      2.00000
      5      -2.3053      2.00000
      6      14.2822      0.00000
      7      15.7723      0.00000
      8      18.5682      0.00000
      9      20.5091      0.00000
     10      22.9508      0.00000
     11      34.0664      0.00000
     12      36.3476      0.00000

 k-point  1096 :      -0.3077   -0.0769    0.4615
  band No.  band energies     occupation 
      1     -43.3483      2.00000
      2     -22.0212      2.00000
      3      -3.8953      2.00000
      4      -2.7850      2.00000
      5      -2.1315      2.00000
      6      13.3328      0.00000
      7      15.7856      0.00000
      8      19.1461      0.00000
      9      20.2318      0.00000
     10      24.5569      0.00000
     11      32.5891      0.00000
     12      36.2497      0.00000

 k-point  1097 :      -0.2308   -0.0769    0.4615
  band No.  band energies     occupation 
      1     -43.3520      2.00000
      2     -22.0843      2.00000
      3      -3.8322      2.00000
      4      -2.5467      2.00000
      5      -1.9411      2.00000
      6      12.2644      0.00000
      7      16.0709      0.00000
      8      19.4986      0.00000
      9      19.9371      0.00000
     10      26.6438      0.00000
     11      31.3502      0.00000
     12      34.6931      0.00000

 k-point  1098 :      -0.1538   -0.0769    0.4615
  band No.  band energies     occupation 
      1     -43.3550      2.00000
      2     -22.1358      2.00000
      3      -3.9199      2.00000
      4      -2.1509      2.00000
      5      -1.7839      2.00000
      6      11.3762      0.00000
      7      16.5075      0.00000
      8      19.4910      0.00000
      9      19.6807      0.00000
     10      29.0307      0.00000
     11      30.7991      0.00000
     12      32.9027      0.00000

 k-point  1099 :      -0.0769   -0.0769    0.4615
  band No.  band energies     occupation 
      1     -43.3567      2.00000
      2     -22.1646      2.00000
      3      -3.9933      2.00000
      4      -1.8594      2.00000
      5      -1.7125      2.00000
      6      10.8718      0.00000
      7      16.8861      0.00000
      8      19.3742      0.00000
      9      19.4554      0.00000
     10      30.5830      0.00000
     11      31.4968      0.00000
     12      31.6641      0.00000


--------------------------------------------------------------------------------------------------------


 soft charge-density along one line, spin component           1
         0         1         2         3         4         5         6         7         8         9
 total charge-density along one line
 
 pseudopotential strength for first ion, spin component:           1
-39.565   3.261  -0.000   0.000  -0.000
  3.261  -9.571  -0.000   0.000  -0.000
 -0.000  -0.000   1.485   0.000   0.000
  0.000   0.000   0.000   1.485   0.000
 -0.000  -0.000   0.000   0.000   1.485
 total augmentation occupancy for first ion, spin component:           1
  1.999  -0.036   0.000  -0.000   0.000
 -0.036   0.568  -0.000   0.000  -0.000
  0.000  -0.000   0.008  -0.000  -0.000
 -0.000   0.000  -0.000   0.008  -0.000
  0.000  -0.000  -0.000  -0.000   0.008


------------------------ aborting loop because EDIFF is reached ----------------------------------------


 


 total charge     
 
# of ion       s       p       d       tot
------------------------------------------
    1        2.015   0.017   0.000   2.031
    2        1.731   4.443   0.000   6.174
--------------------------------------------------
tot          3.745   4.460   0.000   8.205
 
    FORLOC:  cpu time    0.0002: real time    0.0002
    FORNL :  cpu time    0.8061: real time    0.8062
    STRESS:  cpu time   15.5764: real time   15.6821
    FORCOR:  cpu time    0.0137: real time    0.0145
    OFIELD:  cpu time    0.0001: real time    0.0001

  FORCE on cell =-STRESS in cart. coord.  units (eV):
  Direction    XX          YY          ZZ          XY          YZ          ZX
  --------------------------------------------------------------------------------------
  Alpha Z    20.76074    20.76074    20.76074
  Ewald    -187.87099  -187.87099  -187.87102    -0.00173    -0.00173    -0.00173
  Hartree    74.66079    74.66079    74.66078     0.00071     0.00071     0.00071
  E(xc)     -57.76906   -57.76906   -57.76906    -0.00003    -0.00003    -0.00003
  Local     -36.29604   -36.29604   -36.29600     0.00081     0.00081     0.00081
  n-local   -53.98845   -53.98845   -53.98845     0.00017     0.00017     0.00017
  augment    37.35249    37.35249    37.35249    -0.00022    -0.00022    -0.00022
  Kinetic   203.13724   203.13724   203.13724     0.00040     0.00040     0.00040
  Fock        0.00000     0.00000     0.00000     0.00000     0.00000     0.00000
  -------------------------------------------------------------------------------------
  Total      -0.01328    -0.01328    -0.01328     0.00011     0.00011     0.00011
  in kB      -1.34864    -1.34864    -1.34870     0.01066     0.01071     0.01072
  external pressure =       -1.35 kB  Pullay stress =        0.00 kB


 VOLUME and BASIS-vectors are now :
 -----------------------------------------------------------------------------
  energy-cutoff  :      520.00
  volume of cell :       15.78
      direct lattice vectors                 reciprocal lattice vectors
    -0.000152366  1.990776577  1.990776687    -0.251129434  0.251148663  0.251148642
     1.990776575 -0.000152359  1.990776680     0.251148663 -0.251129435  0.251148643
     1.990776636  1.990776630 -0.000152420     0.251148648  0.251148650 -0.251129414

  length of vectors
     2.815383316  2.815383310  2.815383319     0.434991130  0.434991133  0.434991115


 FORCES acting on ions:
    Electron-Ion                     Ewald-Force                    Non-Local-Force
 -----------------------------------------------------------------------------------------------
   -.140E-05 -.418E-05 0.895E-05   0.139E-05 0.412E-05 -.879E-05   0.164E-06 0.486E-06 -.103E-05
   0.116E-05 0.344E-05 -.740E-05   -.139E-05 -.412E-05 0.879E-05   0.172E-06 0.555E-06 -.121E-05
 -----------------------------------------------------------------------------------------------
   -.248E-06 -.739E-06 0.156E-05   0.708E-15 0.543E-16 0.746E-15   0.336E-06 0.104E-05 -.224E-05
 
 
 POSITION                                       TOTAL-FORCE (eV/Angst)
 -----------------------------------------------------------------------------------
      1.99078      1.99078     -0.00015         0.000000      0.000000     -0.000001
      1.99070      1.99070      1.99070        -0.000000     -0.000000      0.000001
 -----------------------------------------------------------------------------------
    total drift:                                0.000000      0.000000     -0.000001


--------------------------------------------------------------------------------------------------------



  FREE ENERGIE OF THE ION-ELECTRON SYSTEM (eV)
  ---------------------------------------------------
  free  energy   TOTEN  =       -11.90646672 eV

  energy  without entropy=      -11.90646672  energy(sigma->0) =      -11.90646672
 
 d Force =-0.9929625E-14[-0.162E-13,-0.370E-14]  d Energy = 0.2990498E-02-0.299E-02
 d Force =-0.2109432E-12[-0.254E-12,-0.168E-12]  d Ewald  = 0.4478577E+01-0.448E+01


--------------------------------------------------------------------------------------------------------


    POTLOK:  cpu time    0.2419: real time    0.2419


--------------------------------------------------------------------------------------------------------


 stress matrix after NEB project (eV)
     -0.01328      0.00011      0.00011
      0.00011     -0.01328      0.00011
      0.00011      0.00011     -0.01328
  FORCES: max atom, RMS     0.000001    0.000001
  FORCE total and by dimension    0.000001    0.000001
  Stress total and by dimension    0.023011    0.013285


--------------------------------------------------------------------------------------------------------


  
 reached required accuracy - stopping structural energy minimisation
 writing wavefunctions
     LOOP+:  cpu time  105.5876: real time  121.1536
    4ORBIT:  cpu time    0.0000: real time    0.0000
 


 total charge     
 
# of ion       s       p       d       tot
------------------------------------------
    1        2.015   0.017   0.000   2.031
    2        1.731   4.443   0.000   6.174
--------------------------------------------------
tot          3.745   4.460   0.000   8.205
 

 total amount of memory used by VASP MPI-rank0    50947. kBytes
=======================================================================

   base      :      30000. kBytes
   nonlr-proj:        270. kBytes
   fftplans  :        344. kBytes
   grid      :        707. kBytes
   one-center:          3. kBytes
   wavefun   :      19623. kBytes
 
  
  
 General timing and accounting informations for this job:
 ========================================================
  
                  Total CPU time used (sec):      369.181
                            User time (sec):      336.824
                          System time (sec):       32.357
                         Elapsed time (sec):      414.763
  
                   Maximum memory used (kb):       92728.
                   Average memory used (kb):           0.
  
                          Minor page faults:      1707157
                          Major page faults:            0
                 Voluntary context switches:        14498
