 vasp.5.4.4.18Apr17-6-g9f103f2a35 (build Nov 08 2022 17:27:33) complex          
  
 executed on             LinuxIFC date 2022.11.22  17:16:00
 running on   16 total cores
 distrk:  each k-point on   16 cores,    1 groups
 distr:  one band on NCORES_PER_BAND=   4 cores,    4 groups


--------------------------------------------------------------------------------------------------------


 INCAR:
 POTCAR:    PAW_PBE Li_sv 10Sep2004               
 POTCAR:    PAW_PBE F 08Apr2002                   
 POTCAR:    PAW_PBE Li_sv 10Sep2004               
   VRHFIN =Li: 1s2s2p                                                           
   LEXCH  = PE                                                                  
   EATOM  =   202.7858 eV,   14.9043 Ry                                         
                                                                                
   TITEL  = PAW_PBE Li_sv 10Sep2004                                             
   LULTRA =        F    use ultrasoft PP ?                                      
   IUNSCR =        0    unscreen: 0-lin 1-nonlin 2-no                           
   RPACOR =    0.000    partial core radius                                     
   POMASS =    7.010; ZVAL   =    3.000    mass and valenz                      
   RCORE  =    1.700    outmost cutoff radius                                   
   RWIGS  =    2.050; RWIGS  =    1.085    wigner-seitz radius (au A)           
   ENMAX  =  499.034; ENMIN  =  374.276 eV                                      
   ICORE  =        2    local potential                                         
   LCOR   =        T    correct aug charges                                     
   LPAW   =        T    paw PP                                                  
   EAUG   =  628.945                                                            
   RMAX   =    1.732    core radius for proj-oper                               
   RAUG   =    1.300    factor for augmentation sphere                          
   RDEP   =    1.728    radius for radial grids                                 
   RDEPT  =    1.329    core radius for aug-charge                              
                                                                                
   Atomic configuration                                                         
    4 entries                                                                   
     n  l   j            E        occ.                                          
     1  0  0.50       -51.8549   2.0000                                         
     2  0  0.50        -2.8742   1.0000                                         
     2  1  0.50        -1.3606   0.0000                                         
     3  2  1.50        -1.3606   0.0000                                         
   Description                                                                  
     l       E           TYP  RCUT    TYP  RCUT                                 
     0    -51.8548813     23  1.400                                             
     0     -2.8742052     23  1.700                                             
     1     -1.3605826     23  1.400                                             
     2     -1.3605826     23  1.400                                             
  local pseudopotential read in
  atomic valenz-charges read in
  non local Contribution for L=           0  read in
    real space projection operators read in
  non local Contribution for L=           0  read in
    real space projection operators read in
  non local Contribution for L=           1  read in
    real space projection operators read in
    PAW grid and wavefunctions read in
 
   number of l-projection  operators is LMAX  =           3
   number of lm-projection operators is LMMAX =           5
 
 POTCAR:    PAW_PBE F 08Apr2002                   
   VRHFIN =F: s2p5                                                              
   LEXCH  = PE                                                                  
   EATOM  =   659.6475 eV,   48.4827 Ry                                         
                                                                                
   TITEL  = PAW_PBE F 08Apr2002                                                 
   LULTRA =        F    use ultrasoft PP ?                                      
   IUNSCR =        1    unscreen: 0-lin 1-nonlin 2-no                           
   RPACOR =    1.200    partial core radius                                     
   POMASS =   18.998; ZVAL   =    7.000    mass and valenz                      
   RCORE  =    1.520    outmost cutoff radius                                   
   RWIGS  =    1.500; RWIGS  =    0.794    wigner-seitz radius (au A)           
   ENMAX  =  400.000; ENMIN  =  300.000 eV                                      
   ICORE  =        2    local potential                                         
   LCOR   =        T    correct aug charges                                     
   LPAW   =        T    paw PP                                                  
   EAUG   =  613.614                                                            
   RMAX   =    1.555    core radius for proj-oper                               
   RAUG   =    1.300    factor for augmentation sphere                          
   RDEP   =    1.539    radius for radial grids                                 
   RDEPT  =    1.299    core radius for aug-charge                              
                                                                                
   Atomic configuration                                                         
    4 entries                                                                   
     n  l   j            E        occ.                                          
     1  0  0.50      -663.3661   2.0000                                         
     2  0  0.50       -29.8995   2.0000                                         
     2  1  0.50       -11.1114   5.0000                                         
     3  2  1.50       -10.8847   0.0000                                         
   Description                                                                  
     l       E           TYP  RCUT    TYP  RCUT                                 
     0    -29.8995018     23  1.200                                             
     0     -9.5240782     23  1.200                                             
     1    -11.1113914     23  1.520                                             
     1      1.3605826     23  1.520                                             
     2    -10.8846608      7  1.500                                             
  local pseudopotential read in
  partial core-charges read in
  partial kinetic energy density read in
  atomic valenz-charges read in
  non local Contribution for L=           0  read in
    real space projection operators read in
  non local Contribution for L=           0  read in
    real space projection operators read in
  non local Contribution for L=           1  read in
    real space projection operators read in
  non local Contribution for L=           1  read in
    real space projection operators read in
    PAW grid and wavefunctions read in
 
   number of l-projection  operators is LMAX  =           4
   number of lm-projection operators is LMMAX =           8
 

 ----------------------------------------------------------------------------- 
|                                                                             |
|  ADVICE TO THIS USER RUNNING 'VASP/VAMP'   (HEAR YOUR MASTER'S VOICE ...):  |
|                                                                             |
|      You have a (more or less) 'small supercell' and for smaller cells      |
|      it is recommended  to use the reciprocal-space projection scheme!      |
|      The real space optimization is not  efficient for small cells and it   |
|      is also less accurate ...                                              |
|      Therefore set LREAL=.FALSE. in the  INCAR file                         |
|                                                                             |
 ----------------------------------------------------------------------------- 

 Optimization of the real space projectors (new method)

 maximal supplied QI-value         = 22.11
 optimisation between [QCUT,QGAM] = [ 11.50, 23.22] = [ 37.02,150.92] Ry 
 Optimized for a Real-space Cutoff    1.08 Angstroem

   l    n(q)    QCUT    max X(q) W(low)/X(q) W(high)/X(q)  e(spline) 
   0      7    11.497    10.506    0.36E-04    0.62E-04    0.14E-07
   0      7    11.497     8.367    0.65E-04    0.14E-03    0.28E-07
   1      7    11.497     8.983    0.21E-03    0.43E-03    0.90E-07
 Optimization of the real space projectors (new method)

 maximal supplied QI-value         = 24.76
 optimisation between [QCUT,QGAM] = [ 11.64, 23.27] = [ 37.91,151.63] Ry 
 Optimized for a Real-space Cutoff    1.04 Angstroem

   l    n(q)    QCUT    max X(q) W(low)/X(q) W(high)/X(q)  e(spline) 
   0      7    11.635    14.049    0.77E-04    0.36E-03    0.13E-06
   0      7    11.635     8.945    0.12E-03    0.48E-03    0.17E-06
   1      7    11.635     7.086    0.24E-03    0.44E-03    0.21E-06
   1      7    11.635     6.747    0.23E-03    0.35E-03    0.19E-06
  PAW_PBE Li_sv 10Sep2004               :
 energy of atom  1       EATOM= -202.7858
 kinetic energy error for atom=    0.0130 (will be added to EATOM!!)
  PAW_PBE F 08Apr2002                   :
 energy of atom  2       EATOM= -659.6475
 kinetic energy error for atom=    0.0323 (will be added to EATOM!!)
 
 
 POSCAR: Li1 F1                                  
  positions in direct lattice
  velocities in cartesian coordinates

 METAGGA = R2SCA    LMAXTAU =  6    LMIXTAU =  T

 exchange correlation table for  LEXCH =        8
   RHO(1)=    0.500       N(1)  =     2000
   RHO(2)=  100.500       N(2)  =     4000

 VTST: version 3.2, (02/03/18)

 CHAIN: initializing optimizer
 
 OPT: Using VASP Conjugate-Gradient optimizer
 CHAIN: Read ICHAIN            0
 
 POSCAR: Li1 F1                                  
  positions in direct lattice
  velocities in cartesian coordinates
 


--------------------------------------------------------------------------------------------------------


 ion  position               nearest neighbor table
   1  0.000  0.000  1.000-   2 2.03   2 2.03   2 2.03   2 2.03   2 2.03   2 2.03
   2  0.500  0.500  0.500-   1 2.03   1 2.03   1 2.03   1 2.03   1 2.03   1 2.03
 

IMPORTANT INFORMATION: All symmetrisations will be switched off!
NOSYMM: (Re-)initialisation of all symmetry stuff for point group C_1.

 
 

Automatic generation of k-mesh.
 generate k-points for:   13   13   13
Space group operators:
 irot       det(A)        alpha          n_x          n_y          n_z        tau_x        tau_y        tau_z
    1     1.000000     0.000001     1.000000     0.000000     0.000000     0.000000     0.000000     0.000000
 
 Subroutine IBZKPT returns following result:
 ===========================================
 
 Found   1099 irreducible k-points:
 
 Following reciprocal coordinates:
            Coordinates               Weight
  0.000000  0.000000  0.000000      1.000000
  0.076923 -0.000000  0.000000      2.000000
  0.153846 -0.000000 -0.000000      2.000000
  0.230769  0.000000 -0.000000      2.000000
  0.307692  0.000000 -0.000000      2.000000
  0.384615  0.000000 -0.000000      2.000000
  0.461538  0.000000 -0.000000      2.000000
 -0.000000  0.076923 -0.000000      2.000000
  0.076923  0.076923 -0.000000      2.000000
  0.153846  0.076923 -0.000000      2.000000
  0.230769  0.076923 -0.000000      2.000000
  0.307692  0.076923 -0.000000      2.000000
  0.384615  0.076923 -0.000000      2.000000
  0.461538  0.076923 -0.000000      2.000000
 -0.461538  0.076923  0.000000      2.000000
 -0.384615  0.076923 -0.000000      2.000000
 -0.307692  0.076923  0.000000      2.000000
 -0.230769  0.076923 -0.000000      2.000000
 -0.153846  0.076923 -0.000000      2.000000
 -0.076923  0.076923 -0.000000      2.000000
 -0.000000  0.153846 -0.000000      2.000000
  0.076923  0.153846  0.000000      2.000000
  0.153846  0.153846 -0.000000      2.000000
  0.230769  0.153846 -0.000000      2.000000
  0.307692  0.153846 -0.000000      2.000000
  0.384615  0.153846 -0.000000      2.000000
  0.461538  0.153846 -0.000000      2.000000
 -0.461538  0.153846  0.000000      2.000000
 -0.384615  0.153846  0.000000      2.000000
 -0.307692  0.153846  0.000000      2.000000
 -0.230769  0.153846  0.000000      2.000000
 -0.153846  0.153846 -0.000000      2.000000
 -0.076923  0.153846 -0.000000      2.000000
 -0.000000  0.230769  0.000000      2.000000
  0.076923  0.230769  0.000000      2.000000
  0.153846  0.230769  0.000000      2.000000
  0.230769  0.230769 -0.000000      2.000000
  0.307692  0.230769 -0.000000      2.000000
  0.384615  0.230769 -0.000000      2.000000
  0.461538  0.230769 -0.000000      2.000000
 -0.461538  0.230769  0.000000      2.000000
 -0.384615  0.230769  0.000000      2.000000
 -0.307692  0.230769  0.000000      2.000000
 -0.230769  0.230769 -0.000000      2.000000
 -0.153846  0.230769  0.000000      2.000000
 -0.076923  0.230769  0.000000      2.000000
  0.000000  0.307692  0.000000      2.000000
  0.076923  0.307692  0.000000      2.000000
  0.153846  0.307692  0.000000      2.000000
  0.230769  0.307692 -0.000000      2.000000
  0.307692  0.307692 -0.000000      2.000000
  0.384615  0.307692 -0.000000      2.000000
  0.461538  0.307692 -0.000000      2.000000
 -0.461538  0.307692  0.000000      2.000000
 -0.384615  0.307692  0.000000      2.000000
 -0.307692  0.307692  0.000000      2.000000
 -0.230769  0.307692  0.000000      2.000000
 -0.153846  0.307692 -0.000000      2.000000
 -0.076923  0.307692  0.000000      2.000000
 -0.000000  0.384615  0.000000      2.000000
  0.076923  0.384615  0.000000      2.000000
  0.153846  0.384615  0.000000      2.000000
  0.230769  0.384615 -0.000000      2.000000
  0.307692  0.384615  0.000000      2.000000
  0.384615  0.384615 -0.000000      2.000000
  0.461538  0.384615 -0.000000      2.000000
 -0.461538  0.384615  0.000000      2.000000
 -0.384615  0.384615  0.000000      2.000000
 -0.307692  0.384615  0.000000      2.000000
 -0.230769  0.384615  0.000000      2.000000
 -0.153846  0.384615  0.000000      2.000000
 -0.076923  0.384615  0.000000      2.000000
 -0.000000  0.461538  0.000000      2.000000
  0.076923  0.461538 -0.000000      2.000000
  0.153846  0.461538  0.000000      2.000000
  0.230769  0.461538 -0.000000      2.000000
  0.307692  0.461538 -0.000000      2.000000
  0.384615  0.461538 -0.000000      2.000000
  0.461538  0.461538 -0.000000      2.000000
 -0.461538  0.461538 -0.000000      2.000000
 -0.384615  0.461538  0.000000      2.000000
 -0.307692  0.461538  0.000000      2.000000
 -0.230769  0.461538  0.000000      2.000000
 -0.153846  0.461538 -0.000000      2.000000
 -0.076923  0.461538 -0.000000      2.000000
  0.000000  0.000000  0.076923      2.000000
  0.076923  0.000000  0.076923      2.000000
  0.153846  0.000000  0.076923      2.000000
  0.230769 -0.000000  0.076923      2.000000
  0.307692  0.000000  0.076923      2.000000
  0.384615 -0.000000  0.076923      2.000000
  0.461538 -0.000000  0.076923      2.000000
 -0.461538 -0.000000  0.076923      2.000000
 -0.384615 -0.000000  0.076923      2.000000
 -0.307692 -0.000000  0.076923      2.000000
 -0.230769  0.000000  0.076923      2.000000
 -0.153846 -0.000000  0.076923      2.000000
 -0.076923 -0.000000  0.076923      2.000000
 -0.000000  0.076923  0.076923      2.000000
  0.076923  0.076923  0.076923      2.000000
  0.153846  0.076923  0.076923      2.000000
  0.230769  0.076923  0.076923      2.000000
  0.307692  0.076923  0.076923      2.000000
  0.384615  0.076923  0.076923      2.000000
  0.461538  0.076923  0.076923      2.000000
 -0.461538  0.076923  0.076923      2.000000
 -0.384615  0.076923  0.076923      2.000000
 -0.307692  0.076923  0.076923      2.000000
 -0.230769  0.076923  0.076923      2.000000
 -0.153846  0.076923  0.076923      2.000000
 -0.076923  0.076923  0.076923      2.000000
 -0.000000  0.153846  0.076923      2.000000
  0.076923  0.153846  0.076923      2.000000
  0.153846  0.153846  0.076923      2.000000
  0.230769  0.153846  0.076923      2.000000
  0.307692  0.153846  0.076923      2.000000
  0.384615  0.153846  0.076923      2.000000
  0.461538  0.153846  0.076923      2.000000
 -0.461538  0.153846  0.076923      2.000000
 -0.384615  0.153846  0.076923      2.000000
 -0.307692  0.153846  0.076923      2.000000
 -0.230769  0.153846  0.076923      2.000000
 -0.153846  0.153846  0.076923      2.000000
 -0.076923  0.153846  0.076923      2.000000
  0.000000  0.230769  0.076923      2.000000
  0.076923  0.230769  0.076923      2.000000
  0.153846  0.230769  0.076923      2.000000
  0.230769  0.230769  0.076923      2.000000
  0.307692  0.230769  0.076923      2.000000
  0.384615  0.230769  0.076923      2.000000
  0.461538  0.230769  0.076923      2.000000
 -0.461538  0.230769  0.076923      2.000000
 -0.384615  0.230769  0.076923      2.000000
 -0.307692  0.230769  0.076923      2.000000
 -0.230769  0.230769  0.076923      2.000000
 -0.153846  0.230769  0.076923      2.000000
 -0.076923  0.230769  0.076923      2.000000
 -0.000000  0.307692  0.076923      2.000000
  0.076923  0.307692  0.076923      2.000000
  0.153846  0.307692  0.076923      2.000000
  0.230769  0.307692  0.076923      2.000000
  0.307692  0.307692  0.076923      2.000000
  0.384615  0.307692  0.076923      2.000000
  0.461538  0.307692  0.076923      2.000000
 -0.461538  0.307692  0.076923      2.000000
 -0.384615  0.307692  0.076923      2.000000
 -0.307692  0.307692  0.076923      2.000000
 -0.230769  0.307692  0.076923      2.000000
 -0.153846  0.307692  0.076923      2.000000
 -0.076923  0.307692  0.076923      2.000000
  0.000000  0.384615  0.076923      2.000000
  0.076923  0.384615  0.076923      2.000000
  0.153846  0.384615  0.076923      2.000000
  0.230769  0.384615  0.076923      2.000000
  0.307692  0.384615  0.076923      2.000000
  0.384615  0.384615  0.076923      2.000000
  0.461538  0.384615  0.076923      2.000000
 -0.461538  0.384615  0.076923      2.000000
 -0.384615  0.384615  0.076923      2.000000
 -0.307692  0.384615  0.076923      2.000000
 -0.230769  0.384615  0.076923      2.000000
 -0.153846  0.384615  0.076923      2.000000
 -0.076923  0.384615  0.076923      2.000000
 -0.000000  0.461538  0.076923      2.000000
  0.076923  0.461538  0.076923      2.000000
  0.153846  0.461538  0.076923      2.000000
  0.230769  0.461538  0.076923      2.000000
  0.307692  0.461538  0.076923      2.000000
  0.384615  0.461538  0.076923      2.000000
  0.461538  0.461538  0.076923      2.000000
 -0.461538  0.461538  0.076923      2.000000
 -0.384615  0.461538  0.076923      2.000000
 -0.307692  0.461538  0.076923      2.000000
 -0.230769  0.461538  0.076923      2.000000
 -0.153846  0.461538  0.076923      2.000000
 -0.076923  0.461538  0.076923      2.000000
  0.000000 -0.461538  0.076923      2.000000
  0.076923 -0.461538  0.076923      2.000000
  0.153846 -0.461538  0.076923      2.000000
  0.230769 -0.461538  0.076923      2.000000
  0.307692 -0.461538  0.076923      2.000000
  0.384615 -0.461538  0.076923      2.000000
  0.461538 -0.461538  0.076923      2.000000
 -0.461538 -0.461538  0.076923      2.000000
 -0.384615 -0.461538  0.076923      2.000000
 -0.307692 -0.461538  0.076923      2.000000
 -0.230769 -0.461538  0.076923      2.000000
 -0.153846 -0.461538  0.076923      2.000000
 -0.076923 -0.461538  0.076923      2.000000
  0.000000 -0.384615  0.076923      2.000000
  0.076923 -0.384615  0.076923      2.000000
  0.153846 -0.384615  0.076923      2.000000
  0.230769 -0.384615  0.076923      2.000000
  0.307692 -0.384615  0.076923      2.000000
  0.384615 -0.384615  0.076923      2.000000
  0.461538 -0.384615  0.076923      2.000000
 -0.461538 -0.384615  0.076923      2.000000
 -0.384615 -0.384615  0.076923      2.000000
 -0.307692 -0.384615  0.076923      2.000000
 -0.230769 -0.384615  0.076923      2.000000
 -0.153846 -0.384615  0.076923      2.000000
 -0.076923 -0.384615  0.076923      2.000000
  0.000000 -0.307692  0.076923      2.000000
  0.076923 -0.307692  0.076923      2.000000
  0.153846 -0.307692  0.076923      2.000000
  0.230769 -0.307692  0.076923      2.000000
  0.307692 -0.307692  0.076923      2.000000
  0.384615 -0.307692  0.076923      2.000000
  0.461538 -0.307692  0.076923      2.000000
 -0.461538 -0.307692  0.076923      2.000000
 -0.384615 -0.307692  0.076923      2.000000
 -0.307692 -0.307692  0.076923      2.000000
 -0.230769 -0.307692  0.076923      2.000000
 -0.153846 -0.307692  0.076923      2.000000
 -0.076923 -0.307692  0.076923      2.000000
  0.000000 -0.230769  0.076923      2.000000
  0.076923 -0.230769  0.076923      2.000000
  0.153846 -0.230769  0.076923      2.000000
  0.230769 -0.230769  0.076923      2.000000
  0.307692 -0.230769  0.076923      2.000000
  0.384615 -0.230769  0.076923      2.000000
  0.461538 -0.230769  0.076923      2.000000
 -0.461538 -0.230769  0.076923      2.000000
 -0.384615 -0.230769  0.076923      2.000000
 -0.307692 -0.230769  0.076923      2.000000
 -0.230769 -0.230769  0.076923      2.000000
 -0.153846 -0.230769  0.076923      2.000000
 -0.076923 -0.230769  0.076923      2.000000
  0.000000 -0.153846  0.076923      2.000000
  0.076923 -0.153846  0.076923      2.000000
  0.153846 -0.153846  0.076923      2.000000
  0.230769 -0.153846  0.076923      2.000000
  0.307692 -0.153846  0.076923      2.000000
  0.384615 -0.153846  0.076923      2.000000
  0.461538 -0.153846  0.076923      2.000000
 -0.461538 -0.153846  0.076923      2.000000
 -0.384615 -0.153846  0.076923      2.000000
 -0.307692 -0.153846  0.076923      2.000000
 -0.230769 -0.153846  0.076923      2.000000
 -0.153846 -0.153846  0.076923      2.000000
 -0.076923 -0.153846  0.076923      2.000000
  0.000000 -0.076923  0.076923      2.000000
  0.076923 -0.076923  0.076923      2.000000
  0.153846 -0.076923  0.076923      2.000000
  0.230769 -0.076923  0.076923      2.000000
  0.307692 -0.076923  0.076923      2.000000
  0.384615 -0.076923  0.076923      2.000000
  0.461538 -0.076923  0.076923      2.000000
 -0.461538 -0.076923  0.076923      2.000000
 -0.384615 -0.076923  0.076923      2.000000
 -0.307692 -0.076923  0.076923      2.000000
 -0.230769 -0.076923  0.076923      2.000000
 -0.153846 -0.076923  0.076923      2.000000
 -0.076923 -0.076923  0.076923      2.000000
  0.000000  0.000000  0.153846      2.000000
  0.076923 -0.000000  0.153846      2.000000
  0.153846  0.000000  0.153846      2.000000
  0.230769  0.000000  0.153846      2.000000
  0.307692  0.000000  0.153846      2.000000
  0.384615  0.000000  0.153846      2.000000
  0.461538 -0.000000  0.153846      2.000000
 -0.461538 -0.000000  0.153846      2.000000
 -0.384615  0.000000  0.153846      2.000000
 -0.307692  0.000000  0.153846      2.000000
 -0.230769  0.000000  0.153846      2.000000
 -0.153846 -0.000000  0.153846      2.000000
 -0.076923  0.000000  0.153846      2.000000
  0.000000  0.076923  0.153846      2.000000
  0.076923  0.076923  0.153846      2.000000
  0.153846  0.076923  0.153846      2.000000
  0.230769  0.076923  0.153846      2.000000
  0.307692  0.076923  0.153846      2.000000
  0.384615  0.076923  0.153846      2.000000
  0.461538  0.076923  0.153846      2.000000
 -0.461538  0.076923  0.153846      2.000000
 -0.384615  0.076923  0.153846      2.000000
 -0.307692  0.076923  0.153846      2.000000
 -0.230769  0.076923  0.153846      2.000000
 -0.153846  0.076923  0.153846      2.000000
 -0.076923  0.076923  0.153846      2.000000
 -0.000000  0.153846  0.153846      2.000000
  0.076923  0.153846  0.153846      2.000000
  0.153846  0.153846  0.153846      2.000000
  0.230769  0.153846  0.153846      2.000000
  0.307692  0.153846  0.153846      2.000000
  0.384615  0.153846  0.153846      2.000000
  0.461538  0.153846  0.153846      2.000000
 -0.461538  0.153846  0.153846      2.000000
 -0.384615  0.153846  0.153846      2.000000
 -0.307692  0.153846  0.153846      2.000000
 -0.230769  0.153846  0.153846      2.000000
 -0.153846  0.153846  0.153846      2.000000
 -0.076923  0.153846  0.153846      2.000000
  0.000000  0.230769  0.153846      2.000000
  0.076923  0.230769  0.153846      2.000000
  0.153846  0.230769  0.153846      2.000000
  0.230769  0.230769  0.153846      2.000000
  0.307692  0.230769  0.153846      2.000000
  0.384615  0.230769  0.153846      2.000000
  0.461538  0.230769  0.153846      2.000000
 -0.461538  0.230769  0.153846      2.000000
 -0.384615  0.230769  0.153846      2.000000
 -0.307692  0.230769  0.153846      2.000000
 -0.230769  0.230769  0.153846      2.000000
 -0.153846  0.230769  0.153846      2.000000
 -0.076923  0.230769  0.153846      2.000000
  0.000000  0.307692  0.153846      2.000000
  0.076923  0.307692  0.153846      2.000000
  0.153846  0.307692  0.153846      2.000000
  0.230769  0.307692  0.153846      2.000000
  0.307692  0.307692  0.153846      2.000000
  0.384615  0.307692  0.153846      2.000000
  0.461538  0.307692  0.153846      2.000000
 -0.461538  0.307692  0.153846      2.000000
 -0.384615  0.307692  0.153846      2.000000
 -0.307692  0.307692  0.153846      2.000000
 -0.230769  0.307692  0.153846      2.000000
 -0.153846  0.307692  0.153846      2.000000
 -0.076923  0.307692  0.153846      2.000000
 -0.000000  0.384615  0.153846      2.000000
  0.076923  0.384615  0.153846      2.000000
  0.153846  0.384615  0.153846      2.000000
  0.230769  0.384615  0.153846      2.000000
  0.307692  0.384615  0.153846      2.000000
  0.384615  0.384615  0.153846      2.000000
  0.461538  0.384615  0.153846      2.000000
 -0.461538  0.384615  0.153846      2.000000
 -0.384615  0.384615  0.153846      2.000000
 -0.307692  0.384615  0.153846      2.000000
 -0.230769  0.384615  0.153846      2.000000
 -0.153846  0.384615  0.153846      2.000000
 -0.076923  0.384615  0.153846      2.000000
 -0.000000  0.461538  0.153846      2.000000
  0.076923  0.461538  0.153846      2.000000
  0.153846  0.461538  0.153846      2.000000
  0.230769  0.461538  0.153846      2.000000
  0.307692  0.461538  0.153846      2.000000
  0.384615  0.461538  0.153846      2.000000
  0.461538  0.461538  0.153846      2.000000
 -0.461538  0.461538  0.153846      2.000000
 -0.384615  0.461538  0.153846      2.000000
 -0.307692  0.461538  0.153846      2.000000
 -0.230769  0.461538  0.153846      2.000000
 -0.153846  0.461538  0.153846      2.000000
 -0.076923  0.461538  0.153846      2.000000
  0.000000 -0.461538  0.153846      2.000000
  0.076923 -0.461538  0.153846      2.000000
  0.153846 -0.461538  0.153846      2.000000
  0.230769 -0.461538  0.153846      2.000000
  0.307692 -0.461538  0.153846      2.000000
  0.384615 -0.461538  0.153846      2.000000
  0.461538 -0.461538  0.153846      2.000000
 -0.461538 -0.461538  0.153846      2.000000
 -0.384615 -0.461538  0.153846      2.000000
 -0.307692 -0.461538  0.153846      2.000000
 -0.230769 -0.461538  0.153846      2.000000
 -0.153846 -0.461538  0.153846      2.000000
 -0.076923 -0.461538  0.153846      2.000000
  0.000000 -0.384615  0.153846      2.000000
  0.076923 -0.384615  0.153846      2.000000
  0.153846 -0.384615  0.153846      2.000000
  0.230769 -0.384615  0.153846      2.000000
  0.307692 -0.384615  0.153846      2.000000
  0.384615 -0.384615  0.153846      2.000000
  0.461538 -0.384615  0.153846      2.000000
 -0.461538 -0.384615  0.153846      2.000000
 -0.384615 -0.384615  0.153846      2.000000
 -0.307692 -0.384615  0.153846      2.000000
 -0.230769 -0.384615  0.153846      2.000000
 -0.153846 -0.384615  0.153846      2.000000
 -0.076923 -0.384615  0.153846      2.000000
  0.000000 -0.307692  0.153846      2.000000
  0.076923 -0.307692  0.153846      2.000000
  0.153846 -0.307692  0.153846      2.000000
  0.230769 -0.307692  0.153846      2.000000
  0.307692 -0.307692  0.153846      2.000000
  0.384615 -0.307692  0.153846      2.000000
  0.461538 -0.307692  0.153846      2.000000
 -0.461538 -0.307692  0.153846      2.000000
 -0.384615 -0.307692  0.153846      2.000000
 -0.307692 -0.307692  0.153846      2.000000
 -0.230769 -0.307692  0.153846      2.000000
 -0.153846 -0.307692  0.153846      2.000000
 -0.076923 -0.307692  0.153846      2.000000
  0.000000 -0.230769  0.153846      2.000000
  0.076923 -0.230769  0.153846      2.000000
  0.153846 -0.230769  0.153846      2.000000
  0.230769 -0.230769  0.153846      2.000000
  0.307692 -0.230769  0.153846      2.000000
  0.384615 -0.230769  0.153846      2.000000
  0.461538 -0.230769  0.153846      2.000000
 -0.461538 -0.230769  0.153846      2.000000
 -0.384615 -0.230769  0.153846      2.000000
 -0.307692 -0.230769  0.153846      2.000000
 -0.230769 -0.230769  0.153846      2.000000
 -0.153846 -0.230769  0.153846      2.000000
 -0.076923 -0.230769  0.153846      2.000000
  0.000000 -0.153846  0.153846      2.000000
  0.076923 -0.153846  0.153846      2.000000
  0.153846 -0.153846  0.153846      2.000000
  0.230769 -0.153846  0.153846      2.000000
  0.307692 -0.153846  0.153846      2.000000
  0.384615 -0.153846  0.153846      2.000000
  0.461538 -0.153846  0.153846      2.000000
 -0.461538 -0.153846  0.153846      2.000000
 -0.384615 -0.153846  0.153846      2.000000
 -0.307692 -0.153846  0.153846      2.000000
 -0.230769 -0.153846  0.153846      2.000000
 -0.153846 -0.153846  0.153846      2.000000
 -0.076923 -0.153846  0.153846      2.000000
  0.000000 -0.076923  0.153846      2.000000
  0.076923 -0.076923  0.153846      2.000000
  0.153846 -0.076923  0.153846      2.000000
  0.230769 -0.076923  0.153846      2.000000
  0.307692 -0.076923  0.153846      2.000000
  0.384615 -0.076923  0.153846      2.000000
  0.461538 -0.076923  0.153846      2.000000
 -0.461538 -0.076923  0.153846      2.000000
 -0.384615 -0.076923  0.153846      2.000000
 -0.307692 -0.076923  0.153846      2.000000
 -0.230769 -0.076923  0.153846      2.000000
 -0.153846 -0.076923  0.153846      2.000000
 -0.076923 -0.076923  0.153846      2.000000
  0.000000  0.000000  0.230769      2.000000
  0.076923 -0.000000  0.230769      2.000000
  0.153846 -0.000000  0.230769      2.000000
  0.230769 -0.000000  0.230769      2.000000
  0.307692  0.000000  0.230769      2.000000
  0.384615  0.000000  0.230769      2.000000
  0.461538 -0.000000  0.230769      2.000000
 -0.461538 -0.000000  0.230769      2.000000
 -0.384615  0.000000  0.230769      2.000000
 -0.307692  0.000000  0.230769      2.000000
 -0.230769 -0.000000  0.230769      2.000000
 -0.153846 -0.000000  0.230769      2.000000
 -0.076923  0.000000  0.230769      2.000000
 -0.000000  0.076923  0.230769      2.000000
  0.076923  0.076923  0.230769      2.000000
  0.153846  0.076923  0.230769      2.000000
  0.230769  0.076923  0.230769      2.000000
  0.307692  0.076923  0.230769      2.000000
  0.384615  0.076923  0.230769      2.000000
  0.461538  0.076923  0.230769      2.000000
 -0.461538  0.076923  0.230769      2.000000
 -0.384615  0.076923  0.230769      2.000000
 -0.307692  0.076923  0.230769      2.000000
 -0.230769  0.076923  0.230769      2.000000
 -0.153846  0.076923  0.230769      2.000000
 -0.076923  0.076923  0.230769      2.000000
  0.000000  0.153846  0.230769      2.000000
  0.076923  0.153846  0.230769      2.000000
  0.153846  0.153846  0.230769      2.000000
  0.230769  0.153846  0.230769      2.000000
  0.307692  0.153846  0.230769      2.000000
  0.384615  0.153846  0.230769      2.000000
  0.461538  0.153846  0.230769      2.000000
 -0.461538  0.153846  0.230769      2.000000
 -0.384615  0.153846  0.230769      2.000000
 -0.307692  0.153846  0.230769      2.000000
 -0.230769  0.153846  0.230769      2.000000
 -0.153846  0.153846  0.230769      2.000000
 -0.076923  0.153846  0.230769      2.000000
 -0.000000  0.230769  0.230769      2.000000
  0.076923  0.230769  0.230769      2.000000
  0.153846  0.230769  0.230769      2.000000
  0.230769  0.230769  0.230769      2.000000
  0.307692  0.230769  0.230769      2.000000
  0.384615  0.230769  0.230769      2.000000
  0.461538  0.230769  0.230769      2.000000
 -0.461538  0.230769  0.230769      2.000000
 -0.384615  0.230769  0.230769      2.000000
 -0.307692  0.230769  0.230769      2.000000
 -0.230769  0.230769  0.230769      2.000000
 -0.153846  0.230769  0.230769      2.000000
 -0.076923  0.230769  0.230769      2.000000
 -0.000000  0.307692  0.230769      2.000000
  0.076923  0.307692  0.230769      2.000000
  0.153846  0.307692  0.230769      2.000000
  0.230769  0.307692  0.230769      2.000000
  0.307692  0.307692  0.230769      2.000000
  0.384615  0.307692  0.230769      2.000000
  0.461538  0.307692  0.230769      2.000000
 -0.461538  0.307692  0.230769      2.000000
 -0.384615  0.307692  0.230769      2.000000
 -0.307692  0.307692  0.230769      2.000000
 -0.230769  0.307692  0.230769      2.000000
 -0.153846  0.307692  0.230769      2.000000
 -0.076923  0.307692  0.230769      2.000000
 -0.000000  0.384615  0.230769      2.000000
  0.076923  0.384615  0.230769      2.000000
  0.153846  0.384615  0.230769      2.000000
  0.230769  0.384615  0.230769      2.000000
  0.307692  0.384615  0.230769      2.000000
  0.384615  0.384615  0.230769      2.000000
  0.461538  0.384615  0.230769      2.000000
 -0.461538  0.384615  0.230769      2.000000
 -0.384615  0.384615  0.230769      2.000000
 -0.307692  0.384615  0.230769      2.000000
 -0.230769  0.384615  0.230769      2.000000
 -0.153846  0.384615  0.230769      2.000000
 -0.076923  0.384615  0.230769      2.000000
  0.000000  0.461538  0.230769      2.000000
  0.076923  0.461538  0.230769      2.000000
  0.153846  0.461538  0.230769      2.000000
  0.230769  0.461538  0.230769      2.000000
  0.307692  0.461538  0.230769      2.000000
  0.384615  0.461538  0.230769      2.000000
  0.461538  0.461538  0.230769      2.000000
 -0.461538  0.461538  0.230769      2.000000
 -0.384615  0.461538  0.230769      2.000000
 -0.307692  0.461538  0.230769      2.000000
 -0.230769  0.461538  0.230769      2.000000
 -0.153846  0.461538  0.230769      2.000000
 -0.076923  0.461538  0.230769      2.000000
 -0.000000 -0.461538  0.230769      2.000000
  0.076923 -0.461538  0.230769      2.000000
  0.153846 -0.461538  0.230769      2.000000
  0.230769 -0.461538  0.230769      2.000000
  0.307692 -0.461538  0.230769      2.000000
  0.384615 -0.461538  0.230769      2.000000
  0.461538 -0.461538  0.230769      2.000000
 -0.461538 -0.461538  0.230769      2.000000
 -0.384615 -0.461538  0.230769      2.000000
 -0.307692 -0.461538  0.230769      2.000000
 -0.230769 -0.461538  0.230769      2.000000
 -0.153846 -0.461538  0.230769      2.000000
 -0.076923 -0.461538  0.230769      2.000000
  0.000000 -0.384615  0.230769      2.000000
  0.076923 -0.384615  0.230769      2.000000
  0.153846 -0.384615  0.230769      2.000000
  0.230769 -0.384615  0.230769      2.000000
  0.307692 -0.384615  0.230769      2.000000
  0.384615 -0.384615  0.230769      2.000000
  0.461538 -0.384615  0.230769      2.000000
 -0.461538 -0.384615  0.230769      2.000000
 -0.384615 -0.384615  0.230769      2.000000
 -0.307692 -0.384615  0.230769      2.000000
 -0.230769 -0.384615  0.230769      2.000000
 -0.153846 -0.384615  0.230769      2.000000
 -0.076923 -0.384615  0.230769      2.000000
  0.000000 -0.307692  0.230769      2.000000
  0.076923 -0.307692  0.230769      2.000000
  0.153846 -0.307692  0.230769      2.000000
  0.230769 -0.307692  0.230769      2.000000
  0.307692 -0.307692  0.230769      2.000000
  0.384615 -0.307692  0.230769      2.000000
  0.461538 -0.307692  0.230769      2.000000
 -0.461538 -0.307692  0.230769      2.000000
 -0.384615 -0.307692  0.230769      2.000000
 -0.307692 -0.307692  0.230769      2.000000
 -0.230769 -0.307692  0.230769      2.000000
 -0.153846 -0.307692  0.230769      2.000000
 -0.076923 -0.307692  0.230769      2.000000
  0.000000 -0.230769  0.230769      2.000000
  0.076923 -0.230769  0.230769      2.000000
  0.153846 -0.230769  0.230769      2.000000
  0.230769 -0.230769  0.230769      2.000000
  0.307692 -0.230769  0.230769      2.000000
  0.384615 -0.230769  0.230769      2.000000
  0.461538 -0.230769  0.230769      2.000000
 -0.461538 -0.230769  0.230769      2.000000
 -0.384615 -0.230769  0.230769      2.000000
 -0.307692 -0.230769  0.230769      2.000000
 -0.230769 -0.230769  0.230769      2.000000
 -0.153846 -0.230769  0.230769      2.000000
 -0.076923 -0.230769  0.230769      2.000000
  0.000000 -0.153846  0.230769      2.000000
  0.076923 -0.153846  0.230769      2.000000
  0.153846 -0.153846  0.230769      2.000000
  0.230769 -0.153846  0.230769      2.000000
  0.307692 -0.153846  0.230769      2.000000
  0.384615 -0.153846  0.230769      2.000000
  0.461538 -0.153846  0.230769      2.000000
 -0.461538 -0.153846  0.230769      2.000000
 -0.384615 -0.153846  0.230769      2.000000
 -0.307692 -0.153846  0.230769      2.000000
 -0.230769 -0.153846  0.230769      2.000000
 -0.153846 -0.153846  0.230769      2.000000
 -0.076923 -0.153846  0.230769      2.000000
  0.000000 -0.076923  0.230769      2.000000
  0.076923 -0.076923  0.230769      2.000000
  0.153846 -0.076923  0.230769      2.000000
  0.230769 -0.076923  0.230769      2.000000
  0.307692 -0.076923  0.230769      2.000000
  0.384615 -0.076923  0.230769      2.000000
  0.461538 -0.076923  0.230769      2.000000
 -0.461538 -0.076923  0.230769      2.000000
 -0.384615 -0.076923  0.230769      2.000000
 -0.307692 -0.076923  0.230769      2.000000
 -0.230769 -0.076923  0.230769      2.000000
 -0.153846 -0.076923  0.230769      2.000000
 -0.076923 -0.076923  0.230769      2.000000
  0.000000 -0.000000  0.307692      2.000000
  0.076923 -0.000000  0.307692      2.000000
  0.153846 -0.000000  0.307692      2.000000
  0.230769 -0.000000  0.307692      2.000000
  0.307692  0.000000  0.307692      2.000000
  0.384615 -0.000000  0.307692      2.000000
  0.461538 -0.000000  0.307692      2.000000
 -0.461538 -0.000000  0.307692      2.000000
 -0.384615  0.000000  0.307692      2.000000
 -0.307692  0.000000  0.307692      2.000000
 -0.230769  0.000000  0.307692      2.000000
 -0.153846  0.000000  0.307692      2.000000
 -0.076923 -0.000000  0.307692      2.000000
  0.000000  0.076923  0.307692      2.000000
  0.076923  0.076923  0.307692      2.000000
  0.153846  0.076923  0.307692      2.000000
  0.230769  0.076923  0.307692      2.000000
  0.307692  0.076923  0.307692      2.000000
  0.384615  0.076923  0.307692      2.000000
  0.461538  0.076923  0.307692      2.000000
 -0.461538  0.076923  0.307692      2.000000
 -0.384615  0.076923  0.307692      2.000000
 -0.307692  0.076923  0.307692      2.000000
 -0.230769  0.076923  0.307692      2.000000
 -0.153846  0.076923  0.307692      2.000000
 -0.076923  0.076923  0.307692      2.000000
  0.000000  0.153846  0.307692      2.000000
  0.076923  0.153846  0.307692      2.000000
  0.153846  0.153846  0.307692      2.000000
  0.230769  0.153846  0.307692      2.000000
  0.307692  0.153846  0.307692      2.000000
  0.384615  0.153846  0.307692      2.000000
  0.461538  0.153846  0.307692      2.000000
 -0.461538  0.153846  0.307692      2.000000
 -0.384615  0.153846  0.307692      2.000000
 -0.307692  0.153846  0.307692      2.000000
 -0.230769  0.153846  0.307692      2.000000
 -0.153846  0.153846  0.307692      2.000000
 -0.076923  0.153846  0.307692      2.000000
  0.000000  0.230769  0.307692      2.000000
  0.076923  0.230769  0.307692      2.000000
  0.153846  0.230769  0.307692      2.000000
  0.230769  0.230769  0.307692      2.000000
  0.307692  0.230769  0.307692      2.000000
  0.384615  0.230769  0.307692      2.000000
  0.461538  0.230769  0.307692      2.000000
 -0.461538  0.230769  0.307692      2.000000
 -0.384615  0.230769  0.307692      2.000000
 -0.307692  0.230769  0.307692      2.000000
 -0.230769  0.230769  0.307692      2.000000
 -0.153846  0.230769  0.307692      2.000000
 -0.076923  0.230769  0.307692      2.000000
  0.000000  0.307692  0.307692      2.000000
  0.076923  0.307692  0.307692      2.000000
  0.153846  0.307692  0.307692      2.000000
  0.230769  0.307692  0.307692      2.000000
  0.307692  0.307692  0.307692      2.000000
  0.384615  0.307692  0.307692      2.000000
  0.461538  0.307692  0.307692      2.000000
 -0.461538  0.307692  0.307692      2.000000
 -0.384615  0.307692  0.307692      2.000000
 -0.307692  0.307692  0.307692      2.000000
 -0.230769  0.307692  0.307692      2.000000
 -0.153846  0.307692  0.307692      2.000000
 -0.076923  0.307692  0.307692      2.000000
  0.000000  0.384615  0.307692      2.000000
  0.076923  0.384615  0.307692      2.000000
  0.153846  0.384615  0.307692      2.000000
  0.230769  0.384615  0.307692      2.000000
  0.307692  0.384615  0.307692      2.000000
  0.384615  0.384615  0.307692      2.000000
  0.461538  0.384615  0.307692      2.000000
 -0.461538  0.384615  0.307692      2.000000
 -0.384615  0.384615  0.307692      2.000000
 -0.307692  0.384615  0.307692      2.000000
 -0.230769  0.384615  0.307692      2.000000
 -0.153846  0.384615  0.307692      2.000000
 -0.076923  0.384615  0.307692      2.000000
 -0.000000  0.461538  0.307692      2.000000
  0.076923  0.461538  0.307692      2.000000
  0.153846  0.461538  0.307692      2.000000
  0.230769  0.461538  0.307692      2.000000
  0.307692  0.461538  0.307692      2.000000
  0.384615  0.461538  0.307692      2.000000
  0.461538  0.461538  0.307692      2.000000
 -0.461538  0.461538  0.307692      2.000000
 -0.384615  0.461538  0.307692      2.000000
 -0.307692  0.461538  0.307692      2.000000
 -0.230769  0.461538  0.307692      2.000000
 -0.153846  0.461538  0.307692      2.000000
 -0.076923  0.461538  0.307692      2.000000
  0.000000 -0.461538  0.307692      2.000000
  0.076923 -0.461538  0.307692      2.000000
  0.153846 -0.461538  0.307692      2.000000
  0.230769 -0.461538  0.307692      2.000000
  0.307692 -0.461538  0.307692      2.000000
  0.384615 -0.461538  0.307692      2.000000
  0.461538 -0.461538  0.307692      2.000000
 -0.461538 -0.461538  0.307692      2.000000
 -0.384615 -0.461538  0.307692      2.000000
 -0.307692 -0.461538  0.307692      2.000000
 -0.230769 -0.461538  0.307692      2.000000
 -0.153846 -0.461538  0.307692      2.000000
 -0.076923 -0.461538  0.307692      2.000000
  0.000000 -0.384615  0.307692      2.000000
  0.076923 -0.384615  0.307692      2.000000
  0.153846 -0.384615  0.307692      2.000000
  0.230769 -0.384615  0.307692      2.000000
  0.307692 -0.384615  0.307692      2.000000
  0.384615 -0.384615  0.307692      2.000000
  0.461538 -0.384615  0.307692      2.000000
 -0.461538 -0.384615  0.307692      2.000000
 -0.384615 -0.384615  0.307692      2.000000
 -0.307692 -0.384615  0.307692      2.000000
 -0.230769 -0.384615  0.307692      2.000000
 -0.153846 -0.384615  0.307692      2.000000
 -0.076923 -0.384615  0.307692      2.000000
  0.000000 -0.307692  0.307692      2.000000
  0.076923 -0.307692  0.307692      2.000000
  0.153846 -0.307692  0.307692      2.000000
  0.230769 -0.307692  0.307692      2.000000
  0.307692 -0.307692  0.307692      2.000000
  0.384615 -0.307692  0.307692      2.000000
  0.461538 -0.307692  0.307692      2.000000
 -0.461538 -0.307692  0.307692      2.000000
 -0.384615 -0.307692  0.307692      2.000000
 -0.307692 -0.307692  0.307692      2.000000
 -0.230769 -0.307692  0.307692      2.000000
 -0.153846 -0.307692  0.307692      2.000000
 -0.076923 -0.307692  0.307692      2.000000
  0.000000 -0.230769  0.307692      2.000000
  0.076923 -0.230769  0.307692      2.000000
  0.153846 -0.230769  0.307692      2.000000
  0.230769 -0.230769  0.307692      2.000000
  0.307692 -0.230769  0.307692      2.000000
  0.384615 -0.230769  0.307692      2.000000
  0.461538 -0.230769  0.307692      2.000000
 -0.461538 -0.230769  0.307692      2.000000
 -0.384615 -0.230769  0.307692      2.000000
 -0.307692 -0.230769  0.307692      2.000000
 -0.230769 -0.230769  0.307692      2.000000
 -0.153846 -0.230769  0.307692      2.000000
 -0.076923 -0.230769  0.307692      2.000000
  0.000000 -0.153846  0.307692      2.000000
  0.076923 -0.153846  0.307692      2.000000
  0.153846 -0.153846  0.307692      2.000000
  0.230769 -0.153846  0.307692      2.000000
  0.307692 -0.153846  0.307692      2.000000
  0.384615 -0.153846  0.307692      2.000000
  0.461538 -0.153846  0.307692      2.000000
 -0.461538 -0.153846  0.307692      2.000000
 -0.384615 -0.153846  0.307692      2.000000
 -0.307692 -0.153846  0.307692      2.000000
 -0.230769 -0.153846  0.307692      2.000000
 -0.153846 -0.153846  0.307692      2.000000
 -0.076923 -0.153846  0.307692      2.000000
  0.000000 -0.076923  0.307692      2.000000
  0.076923 -0.076923  0.307692      2.000000
  0.153846 -0.076923  0.307692      2.000000
  0.230769 -0.076923  0.307692      2.000000
  0.307692 -0.076923  0.307692      2.000000
  0.384615 -0.076923  0.307692      2.000000
  0.461538 -0.076923  0.307692      2.000000
 -0.461538 -0.076923  0.307692      2.000000
 -0.384615 -0.076923  0.307692      2.000000
 -0.307692 -0.076923  0.307692      2.000000
 -0.230769 -0.076923  0.307692      2.000000
 -0.153846 -0.076923  0.307692      2.000000
 -0.076923 -0.076923  0.307692      2.000000
  0.000000 -0.000000  0.384615      2.000000
  0.076923 -0.000000  0.384615      2.000000
  0.153846 -0.000000  0.384615      2.000000
  0.230769 -0.000000  0.384615      2.000000
  0.307692  0.000000  0.384615      2.000000
  0.384615 -0.000000  0.384615      2.000000
  0.461538 -0.000000  0.384615      2.000000
 -0.461538 -0.000000  0.384615      2.000000
 -0.384615 -0.000000  0.384615      2.000000
 -0.307692  0.000000  0.384615      2.000000
 -0.230769  0.000000  0.384615      2.000000
 -0.153846 -0.000000  0.384615      2.000000
 -0.076923 -0.000000  0.384615      2.000000
  0.000000  0.076923  0.384615      2.000000
  0.076923  0.076923  0.384615      2.000000
  0.153846  0.076923  0.384615      2.000000
  0.230769  0.076923  0.384615      2.000000
  0.307692  0.076923  0.384615      2.000000
  0.384615  0.076923  0.384615      2.000000
  0.461538  0.076923  0.384615      2.000000
 -0.461538  0.076923  0.384615      2.000000
 -0.384615  0.076923  0.384615      2.000000
 -0.307692  0.076923  0.384615      2.000000
 -0.230769  0.076923  0.384615      2.000000
 -0.153846  0.076923  0.384615      2.000000
 -0.076923  0.076923  0.384615      2.000000
  0.000000  0.153846  0.384615      2.000000
  0.076923  0.153846  0.384615      2.000000
  0.153846  0.153846  0.384615      2.000000
  0.230769  0.153846  0.384615      2.000000
  0.307692  0.153846  0.384615      2.000000
  0.384615  0.153846  0.384615      2.000000
  0.461538  0.153846  0.384615      2.000000
 -0.461538  0.153846  0.384615      2.000000
 -0.384615  0.153846  0.384615      2.000000
 -0.307692  0.153846  0.384615      2.000000
 -0.230769  0.153846  0.384615      2.000000
 -0.153846  0.153846  0.384615      2.000000
 -0.076923  0.153846  0.384615      2.000000
  0.000000  0.230769  0.384615      2.000000
  0.076923  0.230769  0.384615      2.000000
  0.153846  0.230769  0.384615      2.000000
  0.230769  0.230769  0.384615      2.000000
  0.307692  0.230769  0.384615      2.000000
  0.384615  0.230769  0.384615      2.000000
  0.461538  0.230769  0.384615      2.000000
 -0.461538  0.230769  0.384615      2.000000
 -0.384615  0.230769  0.384615      2.000000
 -0.307692  0.230769  0.384615      2.000000
 -0.230769  0.230769  0.384615      2.000000
 -0.153846  0.230769  0.384615      2.000000
 -0.076923  0.230769  0.384615      2.000000
  0.000000  0.307692  0.384615      2.000000
  0.076923  0.307692  0.384615      2.000000
  0.153846  0.307692  0.384615      2.000000
  0.230769  0.307692  0.384615      2.000000
  0.307692  0.307692  0.384615      2.000000
  0.384615  0.307692  0.384615      2.000000
  0.461538  0.307692  0.384615      2.000000
 -0.461538  0.307692  0.384615      2.000000
 -0.384615  0.307692  0.384615      2.000000
 -0.307692  0.307692  0.384615      2.000000
 -0.230769  0.307692  0.384615      2.000000
 -0.153846  0.307692  0.384615      2.000000
 -0.076923  0.307692  0.384615      2.000000
  0.000000  0.384615  0.384615      2.000000
  0.076923  0.384615  0.384615      2.000000
  0.153846  0.384615  0.384615      2.000000
  0.230769  0.384615  0.384615      2.000000
  0.307692  0.384615  0.384615      2.000000
  0.384615  0.384615  0.384615      2.000000
  0.461538  0.384615  0.384615      2.000000
 -0.461538  0.384615  0.384615      2.000000
 -0.384615  0.384615  0.384615      2.000000
 -0.307692  0.384615  0.384615      2.000000
 -0.230769  0.384615  0.384615      2.000000
 -0.153846  0.384615  0.384615      2.000000
 -0.076923  0.384615  0.384615      2.000000
  0.000000  0.461538  0.384615      2.000000
  0.076923  0.461538  0.384615      2.000000
  0.153846  0.461538  0.384615      2.000000
  0.230769  0.461538  0.384615      2.000000
  0.307692  0.461538  0.384615      2.000000
  0.384615  0.461538  0.384615      2.000000
  0.461538  0.461538  0.384615      2.000000
 -0.461538  0.461538  0.384615      2.000000
 -0.384615  0.461538  0.384615      2.000000
 -0.307692  0.461538  0.384615      2.000000
 -0.230769  0.461538  0.384615      2.000000
 -0.153846  0.461538  0.384615      2.000000
 -0.076923  0.461538  0.384615      2.000000
  0.000000 -0.461538  0.384615      2.000000
  0.076923 -0.461538  0.384615      2.000000
  0.153846 -0.461538  0.384615      2.000000
  0.230769 -0.461538  0.384615      2.000000
  0.307692 -0.461538  0.384615      2.000000
  0.384615 -0.461538  0.384615      2.000000
  0.461538 -0.461538  0.384615      2.000000
 -0.461538 -0.461538  0.384615      2.000000
 -0.384615 -0.461538  0.384615      2.000000
 -0.307692 -0.461538  0.384615      2.000000
 -0.230769 -0.461538  0.384615      2.000000
 -0.153846 -0.461538  0.384615      2.000000
 -0.076923 -0.461538  0.384615      2.000000
  0.000000 -0.384615  0.384615      2.000000
  0.076923 -0.384615  0.384615      2.000000
  0.153846 -0.384615  0.384615      2.000000
  0.230769 -0.384615  0.384615      2.000000
  0.307692 -0.384615  0.384615      2.000000
  0.384615 -0.384615  0.384615      2.000000
  0.461538 -0.384615  0.384615      2.000000
 -0.461538 -0.384615  0.384615      2.000000
 -0.384615 -0.384615  0.384615      2.000000
 -0.307692 -0.384615  0.384615      2.000000
 -0.230769 -0.384615  0.384615      2.000000
 -0.153846 -0.384615  0.384615      2.000000
 -0.076923 -0.384615  0.384615      2.000000
  0.000000 -0.307692  0.384615      2.000000
  0.076923 -0.307692  0.384615      2.000000
  0.153846 -0.307692  0.384615      2.000000
  0.230769 -0.307692  0.384615      2.000000
  0.307692 -0.307692  0.384615      2.000000
  0.384615 -0.307692  0.384615      2.000000
  0.461538 -0.307692  0.384615      2.000000
 -0.461538 -0.307692  0.384615      2.000000
 -0.384615 -0.307692  0.384615      2.000000
 -0.307692 -0.307692  0.384615      2.000000
 -0.230769 -0.307692  0.384615      2.000000
 -0.153846 -0.307692  0.384615      2.000000
 -0.076923 -0.307692  0.384615      2.000000
  0.000000 -0.230769  0.384615      2.000000
  0.076923 -0.230769  0.384615      2.000000
  0.153846 -0.230769  0.384615      2.000000
  0.230769 -0.230769  0.384615      2.000000
  0.307692 -0.230769  0.384615      2.000000
  0.384615 -0.230769  0.384615      2.000000
  0.461538 -0.230769  0.384615      2.000000
 -0.461538 -0.230769  0.384615      2.000000
 -0.384615 -0.230769  0.384615      2.000000
 -0.307692 -0.230769  0.384615      2.000000
 -0.230769 -0.230769  0.384615      2.000000
 -0.153846 -0.230769  0.384615      2.000000
 -0.076923 -0.230769  0.384615      2.000000
  0.000000 -0.153846  0.384615      2.000000
  0.076923 -0.153846  0.384615      2.000000
  0.153846 -0.153846  0.384615      2.000000
  0.230769 -0.153846  0.384615      2.000000
  0.307692 -0.153846  0.384615      2.000000
  0.384615 -0.153846  0.384615      2.000000
  0.461538 -0.153846  0.384615      2.000000
 -0.461538 -0.153846  0.384615      2.000000
 -0.384615 -0.153846  0.384615      2.000000
 -0.307692 -0.153846  0.384615      2.000000
 -0.230769 -0.153846  0.384615      2.000000
 -0.153846 -0.153846  0.384615      2.000000
 -0.076923 -0.153846  0.384615      2.000000
  0.000000 -0.076923  0.384615      2.000000
  0.076923 -0.076923  0.384615      2.000000
  0.153846 -0.076923  0.384615      2.000000
  0.230769 -0.076923  0.384615      2.000000
  0.307692 -0.076923  0.384615      2.000000
  0.384615 -0.076923  0.384615      2.000000
  0.461538 -0.076923  0.384615      2.000000
 -0.461538 -0.076923  0.384615      2.000000
 -0.384615 -0.076923  0.384615      2.000000
 -0.307692 -0.076923  0.384615      2.000000
 -0.230769 -0.076923  0.384615      2.000000
 -0.153846 -0.076923  0.384615      2.000000
 -0.076923 -0.076923  0.384615      2.000000
  0.000000  0.000000  0.461538      2.000000
  0.076923 -0.000000  0.461538      2.000000
  0.153846 -0.000000  0.461538      2.000000
  0.230769 -0.000000  0.461538      2.000000
  0.307692  0.000000  0.461538      2.000000
  0.384615 -0.000000  0.461538      2.000000
  0.461538 -0.000000  0.461538      2.000000
 -0.461538 -0.000000  0.461538      2.000000
 -0.384615 -0.000000  0.461538      2.000000
 -0.307692 -0.000000  0.461538      2.000000
 -0.230769 -0.000000  0.461538      2.000000
 -0.153846  0.000000  0.461538      2.000000
 -0.076923  0.000000  0.461538      2.000000
  0.000000  0.076923  0.461538      2.000000
  0.076923  0.076923  0.461538      2.000000
  0.153846  0.076923  0.461538      2.000000
  0.230769  0.076923  0.461538      2.000000
  0.307692  0.076923  0.461538      2.000000
  0.384615  0.076923  0.461538      2.000000
  0.461538  0.076923  0.461538      2.000000
 -0.461538  0.076923  0.461538      2.000000
 -0.384615  0.076923  0.461538      2.000000
 -0.307692  0.076923  0.461538      2.000000
 -0.230769  0.076923  0.461538      2.000000
 -0.153846  0.076923  0.461538      2.000000
 -0.076923  0.076923  0.461538      2.000000
  0.000000  0.153846  0.461538      2.000000
  0.076923  0.153846  0.461538      2.000000
  0.153846  0.153846  0.461538      2.000000
  0.230769  0.153846  0.461538      2.000000
  0.307692  0.153846  0.461538      2.000000
  0.384615  0.153846  0.461538      2.000000
  0.461538  0.153846  0.461538      2.000000
 -0.461538  0.153846  0.461538      2.000000
 -0.384615  0.153846  0.461538      2.000000
 -0.307692  0.153846  0.461538      2.000000
 -0.230769  0.153846  0.461538      2.000000
 -0.153846  0.153846  0.461538      2.000000
 -0.076923  0.153846  0.461538      2.000000
  0.000000  0.230769  0.461538      2.000000
  0.076923  0.230769  0.461538      2.000000
  0.153846  0.230769  0.461538      2.000000
  0.230769  0.230769  0.461538      2.000000
  0.307692  0.230769  0.461538      2.000000
  0.384615  0.230769  0.461538      2.000000
  0.461538  0.230769  0.461538      2.000000
 -0.461538  0.230769  0.461538      2.000000
 -0.384615  0.230769  0.461538      2.000000
 -0.307692  0.230769  0.461538      2.000000
 -0.230769  0.230769  0.461538      2.000000
 -0.153846  0.230769  0.461538      2.000000
 -0.076923  0.230769  0.461538      2.000000
  0.000000  0.307692  0.461538      2.000000
  0.076923  0.307692  0.461538      2.000000
  0.153846  0.307692  0.461538      2.000000
  0.230769  0.307692  0.461538      2.000000
  0.307692  0.307692  0.461538      2.000000
  0.384615  0.307692  0.461538      2.000000
  0.461538  0.307692  0.461538      2.000000
 -0.461538  0.307692  0.461538      2.000000
 -0.384615  0.307692  0.461538      2.000000
 -0.307692  0.307692  0.461538      2.000000
 -0.230769  0.307692  0.461538      2.000000
 -0.153846  0.307692  0.461538      2.000000
 -0.076923  0.307692  0.461538      2.000000
  0.000000  0.384615  0.461538      2.000000
  0.076923  0.384615  0.461538      2.000000
  0.153846  0.384615  0.461538      2.000000
  0.230769  0.384615  0.461538      2.000000
  0.307692  0.384615  0.461538      2.000000
  0.384615  0.384615  0.461538      2.000000
  0.461538  0.384615  0.461538      2.000000
 -0.461538  0.384615  0.461538      2.000000
 -0.384615  0.384615  0.461538      2.000000
 -0.307692  0.384615  0.461538      2.000000
 -0.230769  0.384615  0.461538      2.000000
 -0.153846  0.384615  0.461538      2.000000
 -0.076923  0.384615  0.461538      2.000000
 -0.000000  0.461538  0.461538      2.000000
  0.076923  0.461538  0.461538      2.000000
  0.153846  0.461538  0.461538      2.000000
  0.230769  0.461538  0.461538      2.000000
  0.307692  0.461538  0.461538      2.000000
  0.384615  0.461538  0.461538      2.000000
  0.461538  0.461538  0.461538      2.000000
 -0.461538  0.461538  0.461538      2.000000
 -0.384615  0.461538  0.461538      2.000000
 -0.307692  0.461538  0.461538      2.000000
 -0.230769  0.461538  0.461538      2.000000
 -0.153846  0.461538  0.461538      2.000000
 -0.076923  0.461538  0.461538      2.000000
  0.000000 -0.461538  0.461538      2.000000
  0.076923 -0.461538  0.461538      2.000000
  0.153846 -0.461538  0.461538      2.000000
  0.230769 -0.461538  0.461538      2.000000
  0.307692 -0.461538  0.461538      2.000000
  0.384615 -0.461538  0.461538      2.000000
  0.461538 -0.461538  0.461538      2.000000
 -0.461538 -0.461538  0.461538      2.000000
 -0.384615 -0.461538  0.461538      2.000000
 -0.307692 -0.461538  0.461538      2.000000
 -0.230769 -0.461538  0.461538      2.000000
 -0.153846 -0.461538  0.461538      2.000000
 -0.076923 -0.461538  0.461538      2.000000
  0.000000 -0.384615  0.461538      2.000000
  0.076923 -0.384615  0.461538      2.000000
  0.153846 -0.384615  0.461538      2.000000
  0.230769 -0.384615  0.461538      2.000000
  0.307692 -0.384615  0.461538      2.000000
  0.384615 -0.384615  0.461538      2.000000
  0.461538 -0.384615  0.461538      2.000000
 -0.461538 -0.384615  0.461538      2.000000
 -0.384615 -0.384615  0.461538      2.000000
 -0.307692 -0.384615  0.461538      2.000000
 -0.230769 -0.384615  0.461538      2.000000
 -0.153846 -0.384615  0.461538      2.000000
 -0.076923 -0.384615  0.461538      2.000000
  0.000000 -0.307692  0.461538      2.000000
  0.076923 -0.307692  0.461538      2.000000
  0.153846 -0.307692  0.461538      2.000000
  0.230769 -0.307692  0.461538      2.000000
  0.307692 -0.307692  0.461538      2.000000
  0.384615 -0.307692  0.461538      2.000000
  0.461538 -0.307692  0.461538      2.000000
 -0.461538 -0.307692  0.461538      2.000000
 -0.384615 -0.307692  0.461538      2.000000
 -0.307692 -0.307692  0.461538      2.000000
 -0.230769 -0.307692  0.461538      2.000000
 -0.153846 -0.307692  0.461538      2.000000
 -0.076923 -0.307692  0.461538      2.000000
  0.000000 -0.230769  0.461538      2.000000
  0.076923 -0.230769  0.461538      2.000000
  0.153846 -0.230769  0.461538      2.000000
  0.230769 -0.230769  0.461538      2.000000
  0.307692 -0.230769  0.461538      2.000000
  0.384615 -0.230769  0.461538      2.000000
  0.461538 -0.230769  0.461538      2.000000
 -0.461538 -0.230769  0.461538      2.000000
 -0.384615 -0.230769  0.461538      2.000000
 -0.307692 -0.230769  0.461538      2.000000
 -0.230769 -0.230769  0.461538      2.000000
 -0.153846 -0.230769  0.461538      2.000000
 -0.076923 -0.230769  0.461538      2.000000
  0.000000 -0.153846  0.461538      2.000000
  0.076923 -0.153846  0.461538      2.000000
  0.153846 -0.153846  0.461538      2.000000
  0.230769 -0.153846  0.461538      2.000000
  0.307692 -0.153846  0.461538      2.000000
  0.384615 -0.153846  0.461538      2.000000
  0.461538 -0.153846  0.461538      2.000000
 -0.461538 -0.153846  0.461538      2.000000
 -0.384615 -0.153846  0.461538      2.000000
 -0.307692 -0.153846  0.461538      2.000000
 -0.230769 -0.153846  0.461538      2.000000
 -0.153846 -0.153846  0.461538      2.000000
 -0.076923 -0.153846  0.461538      2.000000
  0.000000 -0.076923  0.461538      2.000000
  0.076923 -0.076923  0.461538      2.000000
  0.153846 -0.076923  0.461538      2.000000
  0.230769 -0.076923  0.461538      2.000000
  0.307692 -0.076923  0.461538      2.000000
  0.384615 -0.076923  0.461538      2.000000
  0.461538 -0.076923  0.461538      2.000000
 -0.461538 -0.076923  0.461538      2.000000
 -0.384615 -0.076923  0.461538      2.000000
 -0.307692 -0.076923  0.461538      2.000000
 -0.230769 -0.076923  0.461538      2.000000
 -0.153846 -0.076923  0.461538      2.000000
 -0.076923 -0.076923  0.461538      2.000000
 
 Following cartesian coordinates:
            Coordinates               Weight
  0.000000  0.000000  0.000000      1.000000
 -0.018958  0.018958  0.018958      2.000000
 -0.037915  0.037915  0.037915      2.000000
 -0.056873  0.056873  0.056873      2.000000
 -0.075831  0.075831  0.075831      2.000000
 -0.094788  0.094788  0.094788      2.000000
 -0.113746  0.113746  0.113746      2.000000
  0.018958 -0.018958  0.018958      2.000000
 -0.000000 -0.000000  0.037915      2.000000
 -0.018958  0.018958  0.056873      2.000000
 -0.037915  0.037915  0.075831      2.000000
 -0.056873  0.056873  0.094788      2.000000
 -0.075831  0.075830  0.113746      2.000000
 -0.094788  0.094788  0.132703      2.000000
  0.132704 -0.132703 -0.094788      2.000000
  0.113746 -0.113746 -0.075831      2.000000
  0.094788 -0.094788 -0.056873      2.000000
  0.075831 -0.075831 -0.037915      2.000000
  0.056873 -0.056873 -0.018958      2.000000
  0.037915 -0.037915  0.000000      2.000000
  0.037915 -0.037915  0.037915      2.000000
  0.018958 -0.018958  0.056873      2.000000
 -0.000000 -0.000000  0.075831      2.000000
 -0.018958  0.018958  0.094788      2.000000
 -0.037915  0.037915  0.113746      2.000000
 -0.056873  0.056873  0.132703      2.000000
 -0.075831  0.075830  0.151661      2.000000
  0.151661 -0.151661 -0.075831      2.000000
  0.132704 -0.132703 -0.056873      2.000000
  0.113746 -0.113746 -0.037915      2.000000
  0.094788 -0.094788 -0.018958      2.000000
  0.075831 -0.075831  0.000000      2.000000
  0.056873 -0.056873  0.018958      2.000000
  0.056873 -0.056873  0.056873      2.000000
  0.037915 -0.037915  0.075831      2.000000
  0.018958 -0.018958  0.094788      2.000000
 -0.000000 -0.000000  0.113746      2.000000
 -0.018958  0.018958  0.132703      2.000000
 -0.037915  0.037915  0.151661      2.000000
 -0.056873  0.056873  0.170619      2.000000
  0.170619 -0.170619 -0.056873      2.000000
  0.151661 -0.151661 -0.037915      2.000000
  0.132704 -0.132703 -0.018958      2.000000
  0.113746 -0.113746  0.000000      2.000000
  0.094788 -0.094788  0.018958      2.000000
  0.075831 -0.075831  0.037915      2.000000
  0.075831 -0.075831  0.075831      2.000000
  0.056873 -0.056873  0.094788      2.000000
  0.037915 -0.037915  0.113746      2.000000
  0.018958 -0.018958  0.132703      2.000000
 -0.000000 -0.000000  0.151661      2.000000
 -0.018958  0.018957  0.170619      2.000000
 -0.037915  0.037915  0.189576      2.000000
  0.189576 -0.189576 -0.037915      2.000000
  0.170619 -0.170619 -0.018958      2.000000
  0.151661 -0.151661  0.000000      2.000000
  0.132703 -0.132704  0.018958      2.000000
  0.113746 -0.113746  0.037915      2.000000
  0.094788 -0.094788  0.056873      2.000000
  0.094788 -0.094788  0.094788      2.000000
  0.075830 -0.075831  0.113746      2.000000
  0.056873 -0.056873  0.132703      2.000000
  0.037915 -0.037915  0.151661      2.000000
  0.018957 -0.018958  0.170619      2.000000
 -0.000000 -0.000000  0.189576      2.000000
 -0.018958  0.018957  0.208534      2.000000
  0.208534 -0.208534 -0.018958      2.000000
  0.189576 -0.189576  0.000000      2.000000
  0.170619 -0.170619  0.018958      2.000000
  0.151661 -0.151661  0.037915      2.000000
  0.132703 -0.132704  0.056873      2.000000
  0.113746 -0.113746  0.075831      2.000000
  0.113746 -0.113746  0.113746      2.000000
  0.094788 -0.094788  0.132703      2.000000
  0.075830 -0.075831  0.151661      2.000000
  0.056873 -0.056873  0.170619      2.000000
  0.037915 -0.037915  0.189576      2.000000
  0.018957 -0.018958  0.208534      2.000000
 -0.000000 -0.000000  0.227492      2.000000
  0.227492 -0.227492  0.000000      2.000000
  0.208534 -0.208534  0.018958      2.000000
  0.189576 -0.189576  0.037915      2.000000
  0.170619 -0.170619  0.056873      2.000000
  0.151661 -0.151661  0.075831      2.000000
  0.132703 -0.132704  0.094788      2.000000
  0.018958  0.018958 -0.018958      2.000000
 -0.000000  0.037915 -0.000000      2.000000
 -0.018958  0.056873  0.018958      2.000000
 -0.037915  0.075831  0.037915      2.000000
 -0.056873  0.094788  0.056873      2.000000
 -0.075831  0.113746  0.075830      2.000000
 -0.094788  0.132703  0.094788      2.000000
  0.132704 -0.094788 -0.132703      2.000000
  0.113746 -0.075831 -0.113746      2.000000
  0.094788 -0.056873 -0.094788      2.000000
  0.075831 -0.037915 -0.075831      2.000000
  0.056873 -0.018958 -0.056873      2.000000
  0.037915 -0.000000 -0.037915      2.000000
  0.037915 -0.000000 -0.000000      2.000000
  0.018958  0.018958  0.018958      2.000000
 -0.000000  0.037915  0.037915      2.000000
 -0.018958  0.056873  0.056873      2.000000
 -0.037915  0.075830  0.075830      2.000000
 -0.056873  0.094788  0.094788      2.000000
 -0.075831  0.113746  0.113746      2.000000
  0.151661 -0.113746 -0.113746      2.000000
  0.132704 -0.094788 -0.094788      2.000000
  0.113746 -0.075831 -0.075831      2.000000
  0.094788 -0.056873 -0.056873      2.000000
  0.075831 -0.037915 -0.037915      2.000000
  0.056873 -0.018958 -0.018958      2.000000
  0.056873 -0.018958  0.018958      2.000000
  0.037915 -0.000000  0.037915      2.000000
  0.018958  0.018958  0.056873      2.000000
 -0.000000  0.037915  0.075830      2.000000
 -0.018958  0.056873  0.094788      2.000000
 -0.037915  0.075830  0.113746      2.000000
 -0.056873  0.094788  0.132703      2.000000
  0.170619 -0.132703 -0.094788      2.000000
  0.151661 -0.113746 -0.075831      2.000000
  0.132704 -0.094788 -0.056873      2.000000
  0.113746 -0.075831 -0.037915      2.000000
  0.094788 -0.056873 -0.018958      2.000000
  0.075831 -0.037915 -0.000000      2.000000
  0.075831 -0.037915  0.037915      2.000000
  0.056873 -0.018958  0.056873      2.000000
  0.037915 -0.000000  0.075830      2.000000
  0.018958  0.018958  0.094788      2.000000
 -0.000000  0.037915  0.113746      2.000000
 -0.018958  0.056873  0.132703      2.000000
 -0.037915  0.075830  0.151661      2.000000
  0.189576 -0.151661 -0.075831      2.000000
  0.170619 -0.132703 -0.056873      2.000000
  0.151661 -0.113746 -0.037915      2.000000
  0.132703 -0.094788 -0.018958      2.000000
  0.113746 -0.075831 -0.000000      2.000000
  0.094788 -0.056873  0.018958      2.000000
  0.094788 -0.056873  0.056873      2.000000
  0.075830 -0.037915  0.075830      2.000000
  0.056873 -0.018958  0.094788      2.000000
  0.037915 -0.000000  0.113746      2.000000
  0.018957  0.018957  0.132703      2.000000
 -0.000000  0.037915  0.151661      2.000000
 -0.018958  0.056873  0.170619      2.000000
  0.208534 -0.170619 -0.056873      2.000000
  0.189576 -0.151661 -0.037915      2.000000
  0.170619 -0.132704 -0.018958      2.000000
  0.151661 -0.113746 -0.000000      2.000000
  0.132703 -0.094788  0.018958      2.000000
  0.113746 -0.075831  0.037915      2.000000
  0.113746 -0.075831  0.075830      2.000000
  0.094788 -0.056873  0.094788      2.000000
  0.075830 -0.037915  0.113746      2.000000
  0.056873 -0.018958  0.132703      2.000000
  0.037915 -0.000000  0.151661      2.000000
  0.018957  0.018957  0.170619      2.000000
 -0.000000  0.037915  0.189576      2.000000
  0.227492 -0.189576 -0.037915      2.000000
  0.208534 -0.170619 -0.018958      2.000000
  0.189576 -0.151661 -0.000000      2.000000
  0.170619 -0.132704  0.018958      2.000000
  0.151661 -0.113746  0.037915      2.000000
  0.132703 -0.094788  0.056873      2.000000
  0.132703 -0.094788  0.094788      2.000000
  0.113746 -0.075831  0.113746      2.000000
  0.094788 -0.056873  0.132703      2.000000
  0.075830 -0.037915  0.151661      2.000000
  0.056873 -0.018958  0.170619      2.000000
  0.037915 -0.000000  0.189576      2.000000
  0.018957  0.018957  0.208534      2.000000
  0.246449 -0.208534 -0.018958      2.000000
  0.227492 -0.189576 -0.000000      2.000000
  0.208534 -0.170619  0.018958      2.000000
  0.189576 -0.151661  0.037915      2.000000
  0.170619 -0.132704  0.056873      2.000000
  0.151661 -0.113746  0.075830      2.000000
 -0.094788  0.132704 -0.132703      2.000000
 -0.113746  0.151661 -0.113746      2.000000
 -0.132703  0.170619 -0.094788      2.000000
 -0.151661  0.189576 -0.075831      2.000000
 -0.170619  0.208534 -0.056873      2.000000
 -0.189576  0.227492 -0.037915      2.000000
 -0.208534  0.246449 -0.018958      2.000000
  0.018958  0.018958 -0.246449      2.000000
  0.000000  0.037915 -0.227492      2.000000
 -0.018957  0.056873 -0.208534      2.000000
 -0.037915  0.075831 -0.189576      2.000000
 -0.056873  0.094788 -0.170619      2.000000
 -0.075830  0.113746 -0.151661      2.000000
 -0.075831  0.113746 -0.113746      2.000000
 -0.094788  0.132704 -0.094788      2.000000
 -0.113746  0.151661 -0.075831      2.000000
 -0.132703  0.170619 -0.056873      2.000000
 -0.151661  0.189576 -0.037915      2.000000
 -0.170619  0.208534 -0.018958      2.000000
 -0.189576  0.227492 -0.000000      2.000000
  0.037915  0.000000 -0.227492      2.000000
  0.018958  0.018958 -0.208534      2.000000
  0.000000  0.037915 -0.189576      2.000000
 -0.018958  0.056873 -0.170619      2.000000
 -0.037915  0.075831 -0.151661      2.000000
 -0.056873  0.094788 -0.132703      2.000000
 -0.056873  0.094788 -0.094788      2.000000
 -0.075831  0.113746 -0.075831      2.000000
 -0.094788  0.132704 -0.056873      2.000000
 -0.113746  0.151661 -0.037915      2.000000
 -0.132704  0.170619 -0.018958      2.000000
 -0.151661  0.189576 -0.000000      2.000000
 -0.170619  0.208534  0.018958      2.000000
  0.056873 -0.018957 -0.208534      2.000000
  0.037915  0.000000 -0.189576      2.000000
  0.018958  0.018958 -0.170619      2.000000
  0.000000  0.037915 -0.151661      2.000000
 -0.018958  0.056873 -0.132703      2.000000
 -0.037915  0.075831 -0.113746      2.000000
 -0.037915  0.075831 -0.075831      2.000000
 -0.056873  0.094788 -0.056873      2.000000
 -0.075831  0.113746 -0.037915      2.000000
 -0.094788  0.132703 -0.018958      2.000000
 -0.113746  0.151661 -0.000000      2.000000
 -0.132704  0.170619  0.018958      2.000000
 -0.151661  0.189576  0.037915      2.000000
  0.075831 -0.037915 -0.189576      2.000000
  0.056873 -0.018958 -0.170619      2.000000
  0.037915  0.000000 -0.151661      2.000000
  0.018958  0.018958 -0.132703      2.000000
  0.000000  0.037915 -0.113746      2.000000
 -0.018958  0.056873 -0.094788      2.000000
 -0.018958  0.056873 -0.056873      2.000000
 -0.037915  0.075831 -0.037915      2.000000
 -0.056873  0.094788 -0.018958      2.000000
 -0.075831  0.113746 -0.000000      2.000000
 -0.094788  0.132703  0.018958      2.000000
 -0.113746  0.151661  0.037915      2.000000
 -0.132704  0.170619  0.056873      2.000000
  0.094788 -0.056873 -0.170619      2.000000
  0.075831 -0.037915 -0.151661      2.000000
  0.056873 -0.018958 -0.132703      2.000000
  0.037915  0.000000 -0.113746      2.000000
  0.018958  0.018958 -0.094788      2.000000
  0.000000  0.037915 -0.075831      2.000000
 -0.000000  0.037915 -0.037915      2.000000
 -0.018958  0.056873 -0.018958      2.000000
 -0.037915  0.075831 -0.000000      2.000000
 -0.056873  0.094788  0.018958      2.000000
 -0.075831  0.113746  0.037915      2.000000
 -0.094788  0.132703  0.056873      2.000000
 -0.113746  0.151661  0.075830      2.000000
  0.113746 -0.075830 -0.151661      2.000000
  0.094788 -0.056873 -0.132703      2.000000
  0.075831 -0.037915 -0.113746      2.000000
  0.056873 -0.018958 -0.094788      2.000000
  0.037915  0.000000 -0.075831      2.000000
  0.018958  0.018958 -0.056873      2.000000
  0.037915  0.037915 -0.037915      2.000000
  0.018958  0.056873 -0.018958      2.000000
 -0.000000  0.075831 -0.000000      2.000000
 -0.018958  0.094788  0.018958      2.000000
 -0.037915  0.113746  0.037915      2.000000
 -0.056873  0.132703  0.056873      2.000000
 -0.075831  0.151661  0.075830      2.000000
  0.151661 -0.075831 -0.151661      2.000000
  0.132704 -0.056873 -0.132703      2.000000
  0.113746 -0.037915 -0.113746      2.000000
  0.094788 -0.018958 -0.094788      2.000000
  0.075831 -0.000000 -0.075831      2.000000
  0.056873  0.018958 -0.056873      2.000000
  0.056873  0.018958 -0.018958      2.000000
  0.037915  0.037915 -0.000000      2.000000
  0.018958  0.056873  0.018958      2.000000
 -0.000000  0.075830  0.037915      2.000000
 -0.018958  0.094788  0.056873      2.000000
 -0.037915  0.113746  0.075830      2.000000
 -0.056873  0.132703  0.094788      2.000000
  0.170619 -0.094788 -0.132703      2.000000
  0.151661 -0.075831 -0.113746      2.000000
  0.132704 -0.056873 -0.094788      2.000000
  0.113746 -0.037915 -0.075831      2.000000
  0.094788 -0.018958 -0.056873      2.000000
  0.075831 -0.000000 -0.037915      2.000000
  0.075831 -0.000000 -0.000000      2.000000
  0.056873  0.018958  0.018958      2.000000
  0.037915  0.037915  0.037915      2.000000
  0.018958  0.056873  0.056873      2.000000
 -0.000000  0.075830  0.075830      2.000000
 -0.018958  0.094788  0.094788      2.000000
 -0.037915  0.113746  0.113746      2.000000
  0.189576 -0.113746 -0.113746      2.000000
  0.170619 -0.094788 -0.094788      2.000000
  0.151661 -0.075831 -0.075831      2.000000
  0.132703 -0.056873 -0.056873      2.000000
  0.113746 -0.037915 -0.037915      2.000000
  0.094788 -0.018958 -0.018958      2.000000
  0.094788 -0.018958  0.018958      2.000000
  0.075830 -0.000000  0.037915      2.000000
  0.056873  0.018958  0.056873      2.000000
  0.037915  0.037915  0.075830      2.000000
  0.018957  0.056873  0.094788      2.000000
 -0.000000  0.075830  0.113746      2.000000
 -0.018958  0.094788  0.132703      2.000000
  0.208534 -0.132703 -0.094788      2.000000
  0.189576 -0.113746 -0.075831      2.000000
  0.170619 -0.094788 -0.056873      2.000000
  0.151661 -0.075831 -0.037915      2.000000
  0.132703 -0.056873 -0.018958      2.000000
  0.113746 -0.037915 -0.000000      2.000000
  0.113746 -0.037915  0.037915      2.000000
  0.094788 -0.018958  0.056873      2.000000
  0.075830 -0.000000  0.075830      2.000000
  0.056873  0.018957  0.094788      2.000000
  0.037915  0.037915  0.113746      2.000000
  0.018957  0.056873  0.132703      2.000000
 -0.000000  0.075830  0.151661      2.000000
  0.227492 -0.151661 -0.075831      2.000000
  0.208534 -0.132704 -0.056873      2.000000
  0.189576 -0.113746 -0.037915      2.000000
  0.170619 -0.094788 -0.018958      2.000000
  0.151661 -0.075831 -0.000000      2.000000
  0.132703 -0.056873  0.018958      2.000000
  0.132703 -0.056873  0.056873      2.000000
  0.113746 -0.037915  0.075830      2.000000
  0.094788 -0.018958  0.094788      2.000000
  0.075830 -0.000000  0.113746      2.000000
  0.056873  0.018957  0.132703      2.000000
  0.037915  0.037915  0.151661      2.000000
  0.018957  0.056873  0.170619      2.000000
  0.246449 -0.170619 -0.056873      2.000000
  0.227492 -0.151661 -0.037915      2.000000
  0.208534 -0.132704 -0.018958      2.000000
  0.189576 -0.113746 -0.000000      2.000000
  0.170619 -0.094788  0.018958      2.000000
  0.151661 -0.075831  0.037915      2.000000
  0.151661 -0.075831  0.075830      2.000000
  0.132703 -0.056873  0.094788      2.000000
  0.113746 -0.037915  0.113746      2.000000
  0.094788 -0.018958  0.132703      2.000000
  0.075830 -0.000000  0.151661      2.000000
  0.056873  0.018957  0.170619      2.000000
  0.037915  0.037915  0.189576      2.000000
  0.265407 -0.189576 -0.037915      2.000000
  0.246449 -0.170619 -0.018958      2.000000
  0.227492 -0.151661 -0.000000      2.000000
  0.208534 -0.132704  0.018958      2.000000
  0.189576 -0.113746  0.037915      2.000000
  0.170619 -0.094788  0.056873      2.000000
 -0.075831  0.151661 -0.151661      2.000000
 -0.094788  0.170619 -0.132703      2.000000
 -0.113746  0.189576 -0.113746      2.000000
 -0.132703  0.208534 -0.094788      2.000000
 -0.151661  0.227492 -0.075831      2.000000
 -0.170619  0.246449 -0.056873      2.000000
 -0.189576  0.265407 -0.037915      2.000000
  0.037915  0.037915 -0.265407      2.000000
  0.018958  0.056873 -0.246449      2.000000
  0.000000  0.075831 -0.227492      2.000000
 -0.018958  0.094788 -0.208534      2.000000
 -0.037915  0.113746 -0.189576      2.000000
 -0.056873  0.132704 -0.170619      2.000000
 -0.056873  0.132704 -0.132703      2.000000
 -0.075831  0.151661 -0.113746      2.000000
 -0.094788  0.170619 -0.094788      2.000000
 -0.113746  0.189576 -0.075831      2.000000
 -0.132704  0.208534 -0.056873      2.000000
 -0.151661  0.227492 -0.037915      2.000000
 -0.170619  0.246449 -0.018958      2.000000
  0.056873  0.018958 -0.246449      2.000000
  0.037915  0.037915 -0.227492      2.000000
  0.018958  0.056873 -0.208534      2.000000
  0.000000  0.075831 -0.189576      2.000000
 -0.018958  0.094788 -0.170619      2.000000
 -0.037915  0.113746 -0.151661      2.000000
 -0.037915  0.113746 -0.113746      2.000000
 -0.056873  0.132704 -0.094788      2.000000
 -0.075831  0.151661 -0.075831      2.000000
 -0.094788  0.170619 -0.056873      2.000000
 -0.113746  0.189576 -0.037915      2.000000
 -0.132704  0.208534 -0.018958      2.000000
 -0.151661  0.227492 -0.000000      2.000000
  0.075831  0.000000 -0.227492      2.000000
  0.056873  0.018958 -0.208534      2.000000
  0.037915  0.037915 -0.189576      2.000000
  0.018958  0.056873 -0.170619      2.000000
  0.000000  0.075831 -0.151661      2.000000
 -0.018958  0.094788 -0.132703      2.000000
 -0.018958  0.094788 -0.094788      2.000000
 -0.037915  0.113746 -0.075831      2.000000
 -0.056873  0.132703 -0.056873      2.000000
 -0.075831  0.151661 -0.037915      2.000000
 -0.094788  0.170619 -0.018958      2.000000
 -0.113746  0.189576 -0.000000      2.000000
 -0.132704  0.208534  0.018958      2.000000
  0.094788 -0.018958 -0.208534      2.000000
  0.075831  0.000000 -0.189576      2.000000
  0.056873  0.018958 -0.170619      2.000000
  0.037915  0.037915 -0.151661      2.000000
  0.018958  0.056873 -0.132703      2.000000
  0.000000  0.075831 -0.113746      2.000000
 -0.000000  0.075831 -0.075831      2.000000
 -0.018958  0.094788 -0.056873      2.000000
 -0.037915  0.113746 -0.037915      2.000000
 -0.056873  0.132703 -0.018958      2.000000
 -0.075831  0.151661 -0.000000      2.000000
 -0.094788  0.170619  0.018958      2.000000
 -0.113746  0.189576  0.037915      2.000000
  0.113746 -0.037915 -0.189576      2.000000
  0.094788 -0.018958 -0.170619      2.000000
  0.075831  0.000000 -0.151661      2.000000
  0.056873  0.018958 -0.132703      2.000000
  0.037915  0.037915 -0.113746      2.000000
  0.018958  0.056873 -0.094788      2.000000
  0.018958  0.056873 -0.056873      2.000000
 -0.000000  0.075831 -0.037915      2.000000
 -0.018958  0.094788 -0.018958      2.000000
 -0.037915  0.113746 -0.000000      2.000000
 -0.056873  0.132703  0.018958      2.000000
 -0.075831  0.151661  0.037915      2.000000
 -0.094788  0.170619  0.056873      2.000000
  0.132704 -0.056873 -0.170619      2.000000
  0.113746 -0.037915 -0.151661      2.000000
  0.094788 -0.018958 -0.132703      2.000000
  0.075831  0.000000 -0.113746      2.000000
  0.056873  0.018958 -0.094788      2.000000
  0.037915  0.037915 -0.075831      2.000000
  0.056873  0.056873 -0.056873      2.000000
  0.037915  0.075831 -0.037915      2.000000
  0.018958  0.094788 -0.018958      2.000000
 -0.000000  0.113746 -0.000000      2.000000
[...]
 k-point ** :   0.3846-0.3846 0.3846  plane waves:     447
 k-point ** :   0.4615-0.3846 0.3846  plane waves:     450
 k-point ** :  -0.4615-0.3846 0.3846  plane waves:     450
 k-point ** :  -0.3846-0.3846 0.3846  plane waves:     447
 k-point ** :  -0.3077-0.3846 0.3846  plane waves:     449
 k-point ** :  -0.2308-0.3846 0.3846  plane waves:     450
 k-point ** :  -0.1538-0.3846 0.3846  plane waves:     451
 k-point ** :  -0.0769-0.3846 0.3846  plane waves:     448
 k-point ** :   0.0000-0.3077 0.3846  plane waves:     450
 k-point ** :   0.0769-0.3077 0.3846  plane waves:     451
 k-point ** :   0.1538-0.3077 0.3846  plane waves:     445
 k-point ** :   0.2308-0.3077 0.3846  plane waves:     445
 k-point ** :   0.3077-0.3077 0.3846  plane waves:     451
 k-point ** :   0.3846-0.3077 0.3846  plane waves:     450
 k-point ** :   0.4615-0.3077 0.3846  plane waves:     450
 k-point ** :  -0.4615-0.3077 0.3846  plane waves:     446
 k-point ** :  -0.3846-0.3077 0.3846  plane waves:     449
 k-point ** :  -0.3077-0.3077 0.3846  plane waves:     447
 k-point ** :  -0.2308-0.3077 0.3846  plane waves:     449
 k-point ** :  -0.1538-0.3077 0.3846  plane waves:     446
 k-point ** :  -0.0769-0.3077 0.3846  plane waves:     450
 k-point ** :   0.0000-0.2308 0.3846  plane waves:     447
 k-point ** :   0.0769-0.2308 0.3846  plane waves:     449
 k-point ** :   0.1538-0.2308 0.3846  plane waves:     450
 k-point ** :   0.2308-0.2308 0.3846  plane waves:     451
 k-point ** :   0.3077-0.2308 0.3846  plane waves:     448
 k-point ** :   0.3846-0.2308 0.3846  plane waves:     446
 k-point ** :   0.4615-0.2308 0.3846  plane waves:     448
 k-point ** :  -0.4615-0.2308 0.3846  plane waves:     451
 k-point ** :  -0.3846-0.2308 0.3846  plane waves:     450
 k-point ** :  -0.3077-0.2308 0.3846  plane waves:     449
 k-point ** :  -0.2308-0.2308 0.3846  plane waves:     447
 k-point ** :  -0.1538-0.2308 0.3846  plane waves:     450
 k-point ** :  -0.0769-0.2308 0.3846  plane waves:     450
 k-point ** :   0.0000-0.1538 0.3846  plane waves:     445
 k-point ** :   0.0769-0.1538 0.3846  plane waves:     444
 k-point ** :   0.1538-0.1538 0.3846  plane waves:     445
 k-point ** :   0.2308-0.1538 0.3846  plane waves:     450
 k-point ** :   0.3077-0.1538 0.3846  plane waves:     453
 k-point ** :   0.3846-0.1538 0.3846  plane waves:     455
 k-point ** :   0.4615-0.1538 0.3846  plane waves:     449
 k-point ** :  -0.4615-0.1538 0.3846  plane waves:     447
 k-point ** :  -0.3846-0.1538 0.3846  plane waves:     451
 k-point ** :  -0.3077-0.1538 0.3846  plane waves:     446
 k-point ** :  -0.2308-0.1538 0.3846  plane waves:     450
 k-point ** :  -0.1538-0.1538 0.3846  plane waves:     449
 k-point ** :  -0.0769-0.1538 0.3846  plane waves:     449
 k-point ** :   0.0000-0.0769 0.3846  plane waves:     447
 k-point ** :   0.0769-0.0769 0.3846  plane waves:     447
 k-point ** :   0.1538-0.0769 0.3846  plane waves:     446
 k-point ** :   0.2308-0.0769 0.3846  plane waves:     448
 k-point ** :   0.3077-0.0769 0.3846  plane waves:     449
 k-point ** :   0.3846-0.0769 0.3846  plane waves:     454
 k-point ** :   0.4615-0.0769 0.3846  plane waves:     454
 k-point ** :  -0.4615-0.0769 0.3846  plane waves:     449
 k-point ** :  -0.3846-0.0769 0.3846  plane waves:     448
 k-point ** :  -0.3077-0.0769 0.3846  plane waves:     450
 k-point ** :  -0.2308-0.0769 0.3846  plane waves:     450
 k-point ** :  -0.1538-0.0769 0.3846  plane waves:     449
 k-point ** :  -0.0769-0.0769 0.3846  plane waves:     451
 k-point ** :   0.0000 0.0000 0.4615  plane waves:     461
 k-point ** :   0.0769-0.0000 0.4615  plane waves:     451
 k-point ** :   0.1538-0.0000 0.4615  plane waves:     447
 k-point ** :   0.2308-0.0000 0.4615  plane waves:     451
 k-point ** :   0.3077 0.0000 0.4615  plane waves:     451
 k-point ** :   0.3846-0.0000 0.4615  plane waves:     454
 k-point ** :   0.4615-0.0000 0.4615  plane waves:     452
 k-point ** :  -0.4615-0.0000 0.4615  plane waves:     450
 k-point ** :  -0.3846-0.0000 0.4615  plane waves:     455
 k-point ** :  -0.3077-0.0000 0.4615  plane waves:     449
 k-point ** :  -0.2308-0.0000 0.4615  plane waves:     445
 k-point ** :  -0.1538 0.0000 0.4615  plane waves:     449
 k-point ** :  -0.0769 0.0000 0.4615  plane waves:     449
 k-point ** :   0.0000 0.0769 0.4615  plane waves:     451
 k-point ** :   0.0769 0.0769 0.4615  plane waves:     447
 k-point ** :   0.1538 0.0769 0.4615  plane waves:     447
 k-point ** :   0.2308 0.0769 0.4615  plane waves:     446
 k-point ** :   0.3077 0.0769 0.4615  plane waves:     448
 k-point ** :   0.3846 0.0769 0.4615  plane waves:     449
 k-point ** :   0.4615 0.0769 0.4615  plane waves:     454
 k-point ** :  -0.4615 0.0769 0.4615  plane waves:     454
 k-point ** :  -0.3846 0.0769 0.4615  plane waves:     449
 k-point ** :  -0.3077 0.0769 0.4615  plane waves:     448
 k-point ** :  -0.2308 0.0769 0.4615  plane waves:     450
 k-point ** :  -0.1538 0.0769 0.4615  plane waves:     450
 k-point ** :  -0.0769 0.0769 0.4615  plane waves:     449
 k-point ** :   0.0000 0.1538 0.4615  plane waves:     447
 k-point ** :   0.0769 0.1538 0.4615  plane waves:     447
 k-point ** :   0.1538 0.1538 0.4615  plane waves:     448
 k-point ** :   0.2308 0.1538 0.4615  plane waves:     447
 k-point ** :   0.3077 0.1538 0.4615  plane waves:     449
 k-point ** :   0.3846 0.1538 0.4615  plane waves:     448
 k-point ** :   0.4615 0.1538 0.4615  plane waves:     451
 k-point ** :  -0.4615 0.1538 0.4615  plane waves:     453
 k-point ** :  -0.3846 0.1538 0.4615  plane waves:     447
 k-point ** :  -0.3077 0.1538 0.4615  plane waves:     445
 k-point ** :  -0.2308 0.1538 0.4615  plane waves:     445
 k-point ** :  -0.1538 0.1538 0.4615  plane waves:     446
 k-point ** :  -0.0769 0.1538 0.4615  plane waves:     447
 k-point ** :   0.0000 0.2308 0.4615  plane waves:     451
 k-point ** :   0.0769 0.2308 0.4615  plane waves:     446
 k-point ** :   0.1538 0.2308 0.4615  plane waves:     447
 k-point ** :   0.2308 0.2308 0.4615  plane waves:     441
 k-point ** :   0.3077 0.2308 0.4615  plane waves:     447
 k-point ** :   0.3846 0.2308 0.4615  plane waves:     446
 k-point ** :   0.4615 0.2308 0.4615  plane waves:     451
 k-point ** :  -0.4615 0.2308 0.4615  plane waves:     446
 k-point ** :  -0.3846 0.2308 0.4615  plane waves:     451
 k-point ** :  -0.3077 0.2308 0.4615  plane waves:     452
 k-point ** :  -0.2308 0.2308 0.4615  plane waves:     452
 k-point ** :  -0.1538 0.2308 0.4615  plane waves:     451
 k-point ** :  -0.0769 0.2308 0.4615  plane waves:     446
 k-point ** :   0.0000 0.3077 0.4615  plane waves:     451
 k-point ** :   0.0769 0.3077 0.4615  plane waves:     448
 k-point ** :   0.1538 0.3077 0.4615  plane waves:     449
 k-point ** :   0.2308 0.3077 0.4615  plane waves:     447
 k-point ** :   0.3077 0.3077 0.4615  plane waves:     448
 k-point ** :   0.3846 0.3077 0.4615  plane waves:     447
 k-point ** :   0.4615 0.3077 0.4615  plane waves:     447
 k-point ** :  -0.4615 0.3077 0.4615  plane waves:     447
 k-point ** :  -0.3846 0.3077 0.4615  plane waves:     446
 k-point ** :  -0.3077 0.3077 0.4615  plane waves:     445
 k-point ** :  -0.2308 0.3077 0.4615  plane waves:     445
 k-point ** :  -0.1538 0.3077 0.4615  plane waves:     447
 k-point ** :  -0.0769 0.3077 0.4615  plane waves:     453
 k-point ** :   0.0000 0.3846 0.4615  plane waves:     454
 k-point ** :   0.0769 0.3846 0.4615  plane waves:     449
 k-point ** :   0.1538 0.3846 0.4615  plane waves:     448
 k-point ** :   0.2308 0.3846 0.4615  plane waves:     446
 k-point ** :   0.3077 0.3846 0.4615  plane waves:     447
 k-point ** :   0.3846 0.3846 0.4615  plane waves:     447
 k-point ** :   0.4615 0.3846 0.4615  plane waves:     451
 k-point ** :  -0.4615 0.3846 0.4615  plane waves:     449
 k-point ** :  -0.3846 0.3846 0.4615  plane waves:     450
 k-point ** :  -0.3077 0.3846 0.4615  plane waves:     450
 k-point ** :  -0.2308 0.3846 0.4615  plane waves:     448
 k-point ** :  -0.1538 0.3846 0.4615  plane waves:     449
 k-point ** :  -0.0769 0.3846 0.4615  plane waves:     454
 k-point ** :  -0.0000 0.4615 0.4615  plane waves:     452
 k-point ** :   0.0769 0.4615 0.4615  plane waves:     454
 k-point ** :   0.1538 0.4615 0.4615  plane waves:     451
 k-point ** :   0.2308 0.4615 0.4615  plane waves:     451
 k-point ** :   0.3077 0.4615 0.4615  plane waves:     447
 k-point ** :   0.3846 0.4615 0.4615  plane waves:     451
 k-point ** :   0.4615 0.4615 0.4615  plane waves:     461
 k-point ** :  -0.4615 0.4615 0.4615  plane waves:     449
 k-point ** :  -0.3846 0.4615 0.4615  plane waves:     449
 k-point ** :  -0.3077 0.4615 0.4615  plane waves:     445
 k-point ** :  -0.2308 0.4615 0.4615  plane waves:     449
 k-point ** :  -0.1538 0.4615 0.4615  plane waves:     455
 k-point ** :  -0.0769 0.4615 0.4615  plane waves:     450
 k-point ** :   0.0000-0.4615 0.4615  plane waves:     450
 k-point ** :   0.0769-0.4615 0.4615  plane waves:     454
 k-point ** :   0.1538-0.4615 0.4615  plane waves:     453
 k-point ** :   0.2308-0.4615 0.4615  plane waves:     446
 k-point ** :   0.3077-0.4615 0.4615  plane waves:     447
 k-point ** :   0.3846-0.4615 0.4615  plane waves:     449
 k-point ** :   0.4615-0.4615 0.4615  plane waves:     449
 k-point ** :  -0.4615-0.4615 0.4615  plane waves:     449
 k-point ** :  -0.3846-0.4615 0.4615  plane waves:     449
 k-point ** :  -0.3077-0.4615 0.4615  plane waves:     447
 k-point ** :  -0.2308-0.4615 0.4615  plane waves:     446
 k-point ** :  -0.1538-0.4615 0.4615  plane waves:     453
 k-point ** :  -0.0769-0.4615 0.4615  plane waves:     454
 k-point ** :   0.0000-0.3846 0.4615  plane waves:     455
 k-point ** :   0.0769-0.3846 0.4615  plane waves:     449
 k-point ** :   0.1538-0.3846 0.4615  plane waves:     447
 k-point ** :   0.2308-0.3846 0.4615  plane waves:     451
 k-point ** :   0.3077-0.3846 0.4615  plane waves:     446
 k-point ** :   0.3846-0.3846 0.4615  plane waves:     450
 k-point ** :   0.4615-0.3846 0.4615  plane waves:     449
 k-point ** :  -0.4615-0.3846 0.4615  plane waves:     449
 k-point ** :  -0.3846-0.3846 0.4615  plane waves:     445
 k-point ** :  -0.3077-0.3846 0.4615  plane waves:     444
 k-point ** :  -0.2308-0.3846 0.4615  plane waves:     445
 k-point ** :  -0.1538-0.3846 0.4615  plane waves:     450
 k-point ** :  -0.0769-0.3846 0.4615  plane waves:     453
 k-point ** :   0.0000-0.3077 0.4615  plane waves:     449
 k-point ** :   0.0769-0.3077 0.4615  plane waves:     448
 k-point ** :   0.1538-0.3077 0.4615  plane waves:     445
 k-point ** :   0.2308-0.3077 0.4615  plane waves:     452
 k-point ** :   0.3077-0.3077 0.4615  plane waves:     445
 k-point ** :   0.3846-0.3077 0.4615  plane waves:     450
 k-point ** :   0.4615-0.3077 0.4615  plane waves:     445
 k-point ** :  -0.4615-0.3077 0.4615  plane waves:     447
 k-point ** :  -0.3846-0.3077 0.4615  plane waves:     444
 k-point ** :  -0.3077-0.3077 0.4615  plane waves:     446
 k-point ** :  -0.2308-0.3077 0.4615  plane waves:     447
 k-point ** :  -0.1538-0.3077 0.4615  plane waves:     445
 k-point ** :  -0.0769-0.3077 0.4615  plane waves:     446
 k-point ** :   0.0000-0.2308 0.4615  plane waves:     445
 k-point ** :   0.0769-0.2308 0.4615  plane waves:     450
 k-point ** :   0.1538-0.2308 0.4615  plane waves:     445
 k-point ** :   0.2308-0.2308 0.4615  plane waves:     452
 k-point ** :   0.3077-0.2308 0.4615  plane waves:     445
 k-point ** :   0.3846-0.2308 0.4615  plane waves:     448
 k-point ** :   0.4615-0.2308 0.4615  plane waves:     449
 k-point ** :  -0.4615-0.2308 0.4615  plane waves:     446
 k-point ** :  -0.3846-0.2308 0.4615  plane waves:     445
 k-point ** :  -0.3077-0.2308 0.4615  plane waves:     447
 k-point ** :  -0.2308-0.2308 0.4615  plane waves:     446
 k-point ** :  -0.1538-0.2308 0.4615  plane waves:     444
 k-point ** :  -0.0769-0.2308 0.4615  plane waves:     447
 k-point ** :   0.0000-0.1538 0.4615  plane waves:     449
 k-point ** :   0.0769-0.1538 0.4615  plane waves:     450
 k-point ** :   0.1538-0.1538 0.4615  plane waves:     446
 k-point ** :   0.2308-0.1538 0.4615  plane waves:     451
 k-point ** :   0.3077-0.1538 0.4615  plane waves:     447
 k-point ** :   0.3846-0.1538 0.4615  plane waves:     449
 k-point ** :   0.4615-0.1538 0.4615  plane waves:     455
 k-point ** :  -0.4615-0.1538 0.4615  plane waves:     453
 k-point ** :  -0.3846-0.1538 0.4615  plane waves:     450
 k-point ** :  -0.3077-0.1538 0.4615  plane waves:     445
 k-point ** :  -0.2308-0.1538 0.4615  plane waves:     444
 k-point ** :  -0.1538-0.1538 0.4615  plane waves:     445
 k-point ** :  -0.0769-0.1538 0.4615  plane waves:     449
 k-point ** :   0.0000-0.0769 0.4615  plane waves:     449
 k-point ** :   0.0769-0.0769 0.4615  plane waves:     449
 k-point ** :   0.1538-0.0769 0.4615  plane waves:     447
 k-point ** :   0.2308-0.0769 0.4615  plane waves:     446
 k-point ** :   0.3077-0.0769 0.4615  plane waves:     453
 k-point ** :   0.3846-0.0769 0.4615  plane waves:     454
 k-point ** :   0.4615-0.0769 0.4615  plane waves:     450
 k-point ** :  -0.4615-0.0769 0.4615  plane waves:     454
 k-point ** :  -0.3846-0.0769 0.4615  plane waves:     453
 k-point ** :  -0.3077-0.0769 0.4615  plane waves:     446
 k-point ** :  -0.2308-0.0769 0.4615  plane waves:     447
 k-point ** :  -0.1538-0.0769 0.4615  plane waves:     449
 k-point ** :  -0.0769-0.0769 0.4615  plane waves:     449

 maximum and minimum number of plane-waves per node :       126       99

 maximum number of plane-waves:       465
 maximum index in each direction: 
   IXMAX=    5   IYMAX=    5   IZMAX=    5
   IXMIN=   -5   IYMIN=   -5   IZMIN=   -5


 real space projection operators:
  total allocation   :        401.45 KBytes
  max/ min on nodes  :        100.45        100.23


 parallel 3D FFT for wavefunctions:
    minimum data exchange during FFTs selected (reduces bandwidth)
 parallel 3D FFT for charge:
    minimum data exchange during FFTs selected (reduces bandwidth)


 total amount of memory used by VASP MPI-rank0    50947. kBytes
=======================================================================

   base      :      30000. kBytes
   nonlr-proj:        270. kBytes
   fftplans  :        344. kBytes
   grid      :        707. kBytes
   one-center:          3. kBytes
   wavefun   :      19623. kBytes
 
     INWAV:  cpu time    1.2770: real time    1.2779
 Broyden mixing: mesh for mixing (old mesh)
   NGX = 11   NGY = 11   NGZ = 11
  (NGX  = 48   NGY  = 48   NGZ  = 48)
  gives a total of   1331 points

 charge density for first step will be calculated from the start-wavefunctions


--------------------------------------------------------------------------------------------------------


 Maximum index for non-local projection operator         1057
 Maximum index for augmentation-charges          732 (set IRDMAX)


--------------------------------------------------------------------------------------------------------


 initial charge from wavefunction
 First call to EWALD:  gamma=   0.693
 Maximum number of real-space cells 3x 3x 3
 Maximum number of reciprocal cells 3x 3x 3

    FEWALD:  cpu time    0.0025: real time    0.0025


--------------------------------------- Iteration      1(   1)  ---------------------------------------


    POTLOK:  cpu time    0.0213: real time    0.0335
    SETDIJ:  cpu time    0.2087: real time    0.4087
    TRIAL :  cpu time    8.6113: real time   11.7182
    CORREC:  cpu time    3.9117: real time    6.3879
    CHARGE:  cpu time    1.7535: real time    1.9941
    --------------------------------------------
      LOOP:  cpu time   14.5091: real time   20.5724

 eigenvalue-minimisations  :     0
 total energy-change (2. order) :-0.1183893E+02  (-0.5575658E-01)
 number of electron       9.9999991 magnetization 
 augmentation part        2.2679834 magnetization 

 Free energy of the ion-electron system (eV)
  ---------------------------------------------------
  alpha Z        PSCENC =        19.61697810
  Ewald energy   TEWEN  =      -553.06648737
  -Hartree energ DENC   =      -229.05351616
  -exchange      EXHF   =         0.00000000
  -V(xc)+E(xc)   XCENC  =        59.92331303
  PAW double counting   =       704.23483742     -724.88532543
  entropy T*S    EENTRO =        -0.00000000
  eigenvalues    EBANDS =      -150.99675207
  atomic energy  EATOM  =       862.38801837
  ---------------------------------------------------
  free energy    TOTEN  =       -11.83893412 eV

  energy without entropy =      -11.83893412  energy(sigma->0) =      -11.83893412


--------------------------------------------------------------------------------------------------------




--------------------------------------- Iteration      1(   2)  ---------------------------------------


    POTLOK:  cpu time    0.0258: real time    0.0258
    SETDIJ:  cpu time    0.3730: real time    0.3730
    TRIAL :  cpu time   11.1122: real time   12.2532
    CORREC:  cpu time    4.6512: real time    6.5764
    CHARGE:  cpu time    1.2571: real time    1.8671
    --------------------------------------------
      LOOP:  cpu time   17.4220: real time   21.0985

 eigenvalue-minimisations  :     0
 total energy-change (2. order) :-0.4439348E-01  (-0.7150486E-02)
 number of electron       9.9999991 magnetization 
 augmentation part        2.2745560 magnetization 

 Free energy of the ion-electron system (eV)
  ---------------------------------------------------
  alpha Z        PSCENC =        19.61697810
  Ewald energy   TEWEN  =      -553.06648737
  -Hartree energ DENC   =      -229.90360807
  -exchange      EXHF   =         0.00000000
  -V(xc)+E(xc)   XCENC  =        60.00127814
  PAW double counting   =       707.37162781     -728.02547608
  entropy T*S    EENTRO =        -0.00000000
  eigenvalues    EBANDS =      -150.26565850
  atomic energy  EATOM  =       862.38801837
  ---------------------------------------------------
  free energy    TOTEN  =       -11.88332760 eV

  energy without entropy =      -11.88332760  energy(sigma->0) =      -11.88332760


--------------------------------------------------------------------------------------------------------




--------------------------------------- Iteration      1(   3)  ---------------------------------------


    POTLOK:  cpu time    0.0184: real time    0.0342
    SETDIJ:  cpu time    0.2945: real time    0.4420
    TRIAL :  cpu time    9.6387: real time   12.1912
    CORREC:  cpu time    4.8147: real time    5.9748
    CHARGE:  cpu time    1.5140: real time    1.5161
    --------------------------------------------
      LOOP:  cpu time   16.2820: real time   20.1668

 eigenvalue-minimisations  :     0
 total energy-change (2. order) :-0.7362648E-02  (-0.1441062E-02)
 number of electron       9.9999991 magnetization 
 augmentation part        2.2745178 magnetization 

 Free energy of the ion-electron system (eV)
  ---------------------------------------------------
  alpha Z        PSCENC =        19.61697810
  Ewald energy   TEWEN  =      -553.06648737
  -Hartree energ DENC   =      -230.35038388
  -exchange      EXHF   =         0.00000000
  -V(xc)+E(xc)   XCENC  =        60.03627698
  PAW double counting   =       709.08355196     -729.76024575
  entropy T*S    EENTRO =        -0.00000000
  eigenvalues    EBANDS =      -149.83839865
  atomic energy  EATOM  =       862.38801837
  ---------------------------------------------------
  free energy    TOTEN  =       -11.89069025 eV

  energy without entropy =      -11.89069025  energy(sigma->0) =      -11.89069025


--------------------------------------------------------------------------------------------------------




--------------------------------------- Iteration      1(   4)  ---------------------------------------


    POTLOK:  cpu time    0.0333: real time    0.0564
    SETDIJ:  cpu time    0.1127: real time    0.2219
