<?xml version="1.0" encoding="ISO-8859-1"?>
<modeling>
 <generator>
  <i name="program" type="string">vasp </i>
  <i name="version" type="string">5.4.4.18Apr17-6-g9f103f2a35  </i>
  <i name="subversion" type="string">(build Nov 08 2022 17:27:33) complex            parallel </i>
  <i name="platform" type="string">LinuxIFC </i>
  <i name="date" type="string">2022 11 22 </i>
  <i name="time" type="string">17:16:00 </i>
 </generator>
 <incar>
  <i type="string" name="PREC">accurate</i>
  <i type="string" name="ALGO"> All</i>
  <i type="int" name="ISPIN">     1</i>
  <i type="int" name="NELM">   200</i>
  <i type="int" name="IBRION">     2</i>
  <i name="EDIFF">      0.00000100</i>
  <i name="EDIFFG">     -0.03000000</i>
  <i type="int" name="NSW">   199</i>
  <i type="int" name="ISIF">     3</i>
  <i type="int" name="ISYM">     0</i>
  <i name="ENCUT">    520.00000000</i>
  <i name="ENAUG">   1040.00000000</i>
  <v name="MAGMOM">      0.00000000      0.00000000</v>
  <i type="string" name="LREAL"> Auto</i>
  <i type="int" name="ISMEAR">     0</i>
  <i name="SIGMA">      0.01000000</i>
  <i name="KSPACING">      0.22000000</i>
  <i type="logical" name="LWAVE"> T  </i>
  <i type="logical" name="LCHARG"> T  </i>
  <i type="logical" name="LVTOT"> T  </i>
  <i type="int" name="LORBIT">    11</i>
  <i type="logical" name="LELF"> T  </i>
  <i type="logical" name="LASPH"> T  </i>
  <i type="logical" name="LAECHG"> T  </i>
  <v type="int" name="KPOINT_BSE">    -1     0     0     0</v>
  <i type="int" name="NELM">   200</i>
  <i type="string" name="GGA"> Pe</i>
  <i type="string" name="METAGGA"> R2scan</i>
  <i type="logical" name="LASPH"> T  </i>
  <i type="int" name="LMIXTAU">    -1</i>
 </incar>
 <structure name="primitive_cell" >
  <crystal>
   <varray name="basis" >
    <v>       0.00000356       2.02881796       2.02881792 </v>
    <v>       2.02881796       0.00000357       2.02881792 </v>
    <v>       2.02881798       2.02881798       0.00000354 </v>
   </varray>
   <i name="volume">     16.70160054 </i>
   <varray name="rec_basis" >
    <v>      -0.24644957       0.24644914       0.24644914 </v>
    <v>       0.24644914      -0.24644957       0.24644914 </v>
    <v>       0.24644913       0.24644914      -0.24644957 </v>
   </varray>
  </crystal>
  <varray name="positions" >
   <v>       0.00000001       0.00000001      -0.00000001 </v>
   <v>       0.49999999       0.49999999      -0.49999999 </v>
  </varray>
 </structure>
 <varray name="primitive_index" >
  <v type="int" >        1 </v>
  <v type="int" >        2 </v>
 </varray>
 <kpoints>
  <generation param="Gamma">
   <v type="int" name="divisions">      13       13       13 </v>
   <v name="usershift">      0.00000000       0.00000000       0.00000000 </v>
   <v name="genvec1">      0.07692308       0.00000000      -0.00000000 </v>
   <v name="genvec2">     -0.00000000       0.07692308       0.00000000 </v>
   <v name="genvec3">      0.00000000       0.00000000       0.07692308 </v>
   <v name="shift">      0.00000000       0.00000000       0.00000000 </v>
  </generation>
  <varray name="kpointlist" >
   <v>       0.00000000       0.00000000       0.00000000 </v>
   <v>       0.07692308      -0.00000000       0.00000000 </v>
   <v>       0.15384615      -0.00000000      -0.00000000 </v>
   <v>       0.23076923       0.00000000      -0.00000000 </v>
   <v>       0.30769231       0.00000000      -0.00000000 </v>
   <v>       0.38461538       0.00000000      -0.00000000 </v>
   <v>       0.46153846       0.00000000      -0.00000000 </v>
   <v>      -0.00000000       0.07692308      -0.00000000 </v>
   <v>       0.07692308       0.07692308      -0.00000000 </v>
   <v>       0.15384615       0.07692308      -0.00000000 </v>
   <v>       0.23076923       0.07692308      -0.00000000 </v>
   <v>       0.30769231       0.07692308      -0.00000000 </v>
   <v>       0.38461538       0.07692308      -0.00000000 </v>
   <v>       0.46153846       0.07692308      -0.00000000 </v>
   <v>      -0.46153846       0.07692308       0.00000000 </v>
   <v>      -0.38461538       0.07692308      -0.00000000 </v>
   <v>      -0.30769231       0.07692308       0.00000000 </v>
   <v>      -0.23076923       0.07692308      -0.00000000 </v>
   <v>      -0.15384615       0.07692308      -0.00000000 </v>
   <v>      -0.07692308       0.07692308      -0.00000000 </v>
   <v>      -0.00000000       0.15384615      -0.00000000 </v>
   <v>       0.07692308       0.15384615       0.00000000 </v>
   <v>       0.15384615       0.15384615      -0.00000000 </v>
   <v>       0.23076923       0.15384615      -0.00000000 </v>
   <v>       0.30769231       0.15384615      -0.00000000 </v>
   <v>       0.38461538       0.15384615      -0.00000000 </v>
   <v>       0.46153846       0.15384615      -0.00000000 </v>
   <v>      -0.46153846       0.15384615       0.00000000 </v>
   <v>      -0.38461538       0.15384615       0.00000000 </v>
   <v>      -0.30769231       0.15384615       0.00000000 </v>
   <v>      -0.23076923       0.15384615       0.00000000 </v>
   <v>      -0.15384615       0.15384615      -0.00000000 </v>
   <v>      -0.07692308       0.15384615      -0.00000000 </v>
   <v>      -0.00000000       0.23076923       0.00000000 </v>
   <v>       0.07692308       0.23076923       0.00000000 </v>
   <v>       0.15384615       0.23076923       0.00000000 </v>
   <v>       0.23076923       0.23076923      -0.00000000 </v>
   <v>       0.30769231       0.23076923      -0.00000000 </v>
   <v>       0.38461538       0.23076923      -0.00000000 </v>
   <v>       0.46153846       0.23076923      -0.00000000 </v>
   <v>      -0.46153846       0.23076923       0.00000000 </v>
   <v>      -0.38461538       0.23076923       0.00000000 </v>
   <v>      -0.30769231       0.23076923       0.00000000 </v>
   <v>      -0.23076923       0.23076923      -0.00000000 </v>
   <v>      -0.15384615       0.23076923       0.00000000 </v>
   <v>      -0.07692308       0.23076923       0.00000000 </v>
   <v>       0.00000000       0.30769231       0.00000000 </v>
   <v>       0.07692308       0.30769231       0.00000000 </v>
   <v>       0.15384615       0.30769231       0.00000000 </v>
   <v>       0.23076923       0.30769231      -0.00000000 </v>
   <v>       0.30769231       0.30769231      -0.00000000 </v>
   <v>       0.38461538       0.30769231      -0.00000000 </v>
   <v>       0.46153846       0.30769231      -0.00000000 </v>
   <v>      -0.46153846       0.30769231       0.00000000 </v>
   <v>      -0.38461538       0.30769231       0.00000000 </v>
   <v>      -0.30769231       0.30769231       0.00000000 </v>
   <v>      -0.23076923       0.30769231       0.00000000 </v>
   <v>      -0.15384615       0.30769231      -0.00000000 </v>
   <v>      -0.07692308       0.30769231       0.00000000 </v>
   <v>      -0.00000000       0.38461538       0.00000000 </v>
   <v>       0.07692308       0.38461538       0.00000000 </v>
   <v>       0.15384615       0.38461538       0.00000000 </v>
   <v>       0.23076923       0.38461538      -0.00000000 </v>
   <v>       0.30769231       0.38461538       0.00000000 </v>
   <v>       0.38461538       0.38461538      -0.00000000 </v>
   <v>       0.46153846       0.38461538      -0.00000000 </v>
   <v>      -0.46153846       0.38461538       0.00000000 </v>
   <v>      -0.38461538       0.38461538       0.00000000 </v>
   <v>      -0.30769231       0.38461538       0.00000000 </v>
   <v>      -0.23076923       0.38461538       0.00000000 </v>
   <v>      -0.15384615       0.38461538       0.00000000 </v>
   <v>      -0.07692308       0.38461538       0.00000000 </v>
   <v>      -0.00000000       0.46153846       0.00000000 </v>
   <v>       0.07692308       0.46153846      -0.00000000 </v>
   <v>       0.15384615       0.46153846       0.00000000 </v>
   <v>       0.23076923       0.46153846      -0.00000000 </v>
   <v>       0.30769231       0.46153846      -0.00000000 </v>
   <v>       0.38461538       0.46153846      -0.00000000 </v>
   <v>       0.46153846       0.46153846      -0.00000000 </v>
   <v>      -0.46153846       0.46153846      -0.00000000 </v>
   <v>      -0.38461538       0.46153846       0.00000000 </v>
   <v>      -0.30769231       0.46153846       0.00000000 </v>
   <v>      -0.23076923       0.46153846       0.00000000 </v>
   <v>      -0.15384615       0.46153846      -0.00000000 </v>
   <v>      -0.07692308       0.46153846      -0.00000000 </v>
   <v>       0.00000000       0.00000000       0.07692308 </v>
   <v>       0.07692308       0.00000000       0.07692308 </v>
   <v>       0.15384615       0.00000000       0.07692308 </v>
   <v>       0.23076923      -0.00000000       0.07692308 </v>
   <v>       0.30769231       0.00000000       0.07692308 </v>
   <v>       0.38461538      -0.00000000       0.07692308 </v>
   <v>       0.46153846      -0.00000000       0.07692308 </v>
   <v>      -0.46153846      -0.00000000       0.07692308 </v>
   <v>      -0.38461538      -0.00000000       0.07692308 </v>
   <v>      -0.30769231      -0.00000000       0.07692308 </v>
   <v>      -0.23076923       0.00000000       0.07692308 </v>
   <v>      -0.15384615      -0.00000000       0.07692308 </v>
   <v>      -0.07692308      -0.00000000       0.07692308 </v>
   <v>      -0.00000000       0.07692308       0.07692308 </v>
   <v>       0.07692308       0.07692308       0.07692308 </v>
   <v>       0.15384615       0.07692308       0.07692308 </v>
   <v>       0.23076923       0.07692308       0.07692308 </v>
   <v>       0.30769231       0.07692308       0.07692308 </v>
   <v>       0.38461538       0.07692308       0.07692308 </v>
   <v>       0.46153846       0.07692308       0.07692308 </v>
   <v>      -0.46153846       0.07692308       0.07692308 </v>
   <v>      -0.38461538       0.07692308       0.07692308 </v>
   <v>      -0.30769231       0.07692308       0.07692308 </v>
   <v>      -0.23076923       0.07692308       0.07692308 </v>
   <v>      -0.15384615       0.07692308       0.07692308 </v>
   <v>      -0.07692308       0.07692308       0.07692308 </v>
   <v>      -0.00000000       0.15384615       0.07692308 </v>
   <v>       0.07692308       0.15384615       0.07692308 </v>
   <v>       0.15384615       0.15384615       0.07692308 </v>
   <v>       0.23076923       0.15384615       0.07692308 </v>
   <v>       0.30769231       0.15384615       0.07692308 </v>
   <v>       0.38461538       0.15384615       0.07692308 </v>
   <v>       0.46153846       0.15384615       0.07692308 </v>
   <v>      -0.46153846       0.15384615       0.07692308 </v>
   <v>      -0.38461538       0.15384615       0.07692308 </v>
   <v>      -0.30769231       0.15384615       0.07692308 </v>
   <v>      -0.23076923       0.15384615       0.07692308 </v>
   <v>      -0.15384615       0.15384615       0.07692308 </v>
   <v>      -0.07692308       0.15384615       0.07692308 </v>
   <v>       0.00000000       0.23076923       0.07692308 </v>
   <v>       0.07692308       0.23076923       0.07692308 </v>
   <v>       0.15384615       0.23076923       0.07692308 </v>
   <v>       0.23076923       0.23076923       0.07692308 </v>
   <v>       0.30769231       0.23076923       0.07692308 </v>
   <v>       0.38461538       0.23076923       0.07692308 </v>
   <v>       0.46153846       0.23076923       0.07692308 </v>
   <v>      -0.46153846       0.23076923       0.07692308 </v>
   <v>      -0.38461538       0.23076923       0.07692308 </v>
   <v>      -0.30769231       0.23076923       0.07692308 </v>
   <v>      -0.23076923       0.23076923       0.07692308 </v>
   <v>      -0.15384615       0.23076923       0.07692308 </v>
   <v>      -0.07692308       0.23076923       0.07692308 </v>
   <v>      -0.00000000       0.30769231       0.07692308 </v>
   <v>       0.07692308       0.30769231       0.07692308 </v>
   <v>       0.15384615       0.30769231       0.07692308 </v>
   <v>       0.23076923       0.30769231       0.07692308 </v>
   <v>       0.30769231       0.30769231       0.07692308 </v>
   <v>       0.38461538       0.30769231       0.07692308 </v>
   <v>       0.46153846       0.30769231       0.07692308 </v>
   <v>      -0.46153846       0.30769231       0.07692308 </v>
   <v>      -0.38461538       0.30769231       0.07692308 </v>
   <v>      -0.30769231       0.30769231       0.07692308 </v>
   <v>      -0.23076923       0.30769231       0.07692308 </v>
   <v>      -0.15384615       0.30769231       0.07692308 </v>
   <v>      -0.07692308       0.30769231       0.07692308 </v>
   <v>       0.00000000       0.38461538       0.07692308 </v>
   <v>       0.07692308       0.38461538       0.07692308 </v>
   <v>       0.15384615       0.38461538       0.07692308 </v>
   <v>       0.23076923       0.38461538       0.07692308 </v>
   <v>       0.30769231       0.38461538       0.07692308 </v>
   <v>       0.38461538       0.38461538       0.07692308 </v>
   <v>       0.46153846       0.38461538       0.07692308 </v>
   <v>      -0.46153846       0.38461538       0.07692308 </v>
   <v>      -0.38461538       0.38461538       0.07692308 </v>
   <v>      -0.30769231       0.38461538       0.07692308 </v>
   <v>      -0.23076923       0.38461538       0.07692308 </v>
   <v>      -0.15384615       0.38461538       0.07692308 </v>
   <v>      -0.07692308       0.38461538       0.07692308 </v>
   <v>      -0.00000000       0.46153846       0.07692308 </v>
   <v>       0.07692308       0.46153846       0.07692308 </v>
   <v>       0.15384615       0.46153846       0.07692308 </v>
   <v>       0.23076923       0.46153846       0.07692308 </v>
   <v>       0.30769231       0.46153846       0.07692308 </v>
   <v>       0.38461538       0.46153846       0.07692308 </v>
   <v>       0.46153846       0.46153846       0.07692308 </v>
   <v>      -0.46153846       0.46153846       0.07692308 </v>
   <v>      -0.38461538       0.46153846       0.07692308 </v>
   <v>      -0.30769231       0.46153846       0.07692308 </v>
   <v>      -0.23076923       0.46153846       0.07692308 </v>
   <v>      -0.15384615       0.46153846       0.07692308 </v>
   <v>      -0.07692308       0.46153846       0.07692308 </v>
   <v>       0.00000000      -0.46153846       0.07692308 </v>
   <v>       0.07692308      -0.46153846       0.07692308 </v>
   <v>       0.15384615      -0.46153846       0.07692308 </v>
   <v>       0.23076923      -0.46153846       0.07692308 </v>
   <v>       0.30769231      -0.46153846       0.07692308 </v>
   <v>       0.38461538      -0.46153846       0.07692308 </v>
   <v>       0.46153846      -0.46153846       0.07692308 </v>
   <v>      -0.46153846      -0.46153846       0.07692308 </v>
   <v>      -0.38461538      -0.46153846       0.07692308 </v>
   <v>      -0.30769231      -0.46153846       0.07692308 </v>
   <v>      -0.23076923      -0.46153846       0.07692308 </v>
   <v>      -0.15384615      -0.46153846       0.07692308 </v>
   <v>      -0.07692308      -0.46153846       0.07692308 </v>
   <v>       0.00000000      -0.38461538       0.07692308 </v>
   <v>       0.07692308      -0.38461538       0.07692308 </v>
   <v>       0.15384615      -0.38461538       0.07692308 </v>
   <v>       0.23076923      -0.38461538       0.07692308 </v>
   <v>       0.30769231      -0.38461538       0.07692308 </v>
   <v>       0.38461538      -0.38461538       0.07692308 </v>
   <v>       0.46153846      -0.38461538       0.07692308 </v>
   <v>      -0.46153846      -0.38461538       0.07692308 </v>
   <v>      -0.38461538      -0.38461538       0.07692308 </v>
   <v>      -0.30769231      -0.38461538       0.07692308 </v>
   <v>      -0.23076923      -0.38461538       0.07692308 </v>
   <v>      -0.15384615      -0.38461538       0.07692308 </v>
   <v>      -0.07692308      -0.38461538       0.07692308 </v>
   <v>       0.00000000      -0.30769231       0.07692308 </v>
   <v>       0.07692308      -0.30769231       0.07692308 </v>
   <v>       0.15384615      -0.30769231       0.07692308 </v>
   <v>       0.23076923      -0.30769231       0.07692308 </v>
   <v>       0.30769231      -0.30769231       0.07692308 </v>
   <v>       0.38461538      -0.30769231       0.07692308 </v>
   <v>       0.46153846      -0.30769231       0.07692308 </v>
   <v>      -0.46153846      -0.30769231       0.07692308 </v>
   <v>      -0.38461538      -0.30769231       0.07692308 </v>
   <v>      -0.30769231      -0.30769231       0.07692308 </v>
   <v>      -0.23076923      -0.30769231       0.07692308 </v>
   <v>      -0.15384615      -0.30769231       0.07692308 </v>
   <v>      -0.07692308      -0.30769231       0.07692308 </v>
   <v>       0.00000000      -0.23076923       0.07692308 </v>
   <v>       0.07692308      -0.23076923       0.07692308 </v>
   <v>       0.15384615      -0.23076923       0.07692308 </v>
   <v>       0.23076923      -0.23076923       0.07692308 </v>
   <v>       0.30769231      -0.23076923       0.07692308 </v>
   <v>       0.38461538      -0.23076923       0.07692308 </v>
   <v>       0.46153846      -0.23076923       0.07692308 </v>
   <v>      -0.46153846      -0.23076923       0.07692308 </v>
   <v>      -0.38461538      -0.23076923       0.07692308 </v>
   <v>      -0.30769231      -0.23076923       0.07692308 </v>
   <v>      -0.23076923      -0.23076923       0.07692308 </v>
   <v>      -0.15384615      -0.23076923       0.07692308 </v>
   <v>      -0.07692308      -0.23076923       0.07692308 </v>
   <v>       0.00000000      -0.15384615       0.07692308 </v>
   <v>       0.07692308      -0.15384615       0.07692308 </v>
   <v>       0.15384615      -0.15384615       0.07692308 </v>
   <v>       0.23076923      -0.15384615       0.07692308 </v>
   <v>       0.30769231      -0.15384615       0.07692308 </v>
   <v>       0.38461538      -0.15384615       0.07692308 </v>
   <v>       0.46153846      -0.15384615       0.07692308 </v>
   <v>      -0.46153846      -0.15384615       0.07692308 </v>
   <v>      -0.38461538      -0.15384615       0.07692308 </v>
   <v>      -0.30769231      -0.15384615       0.07692308 </v>
   <v>      -0.23076923      -0.15384615       0.07692308 </v>
   <v>      -0.15384615      -0.15384615       0.07692308 </v>
   <v>      -0.07692308      -0.15384615       0.07692308 </v>
   <v>       0.00000000      -0.07692308       0.07692308 </v>
   <v>       0.07692308      -0.07692308       0.07692308 </v>
   <v>       0.15384615      -0.07692308       0.07692308 </v>
   <v>       0.23076923      -0.07692308       0.07692308 </v>
   <v>       0.30769231      -0.07692308       0.07692308 </v>
   <v>       0.38461538      -0.07692308       0.07692308 </v>
   <v>       0.46153846      -0.07692308       0.07692308 </v>
   <v>      -0.46153846      -0.07692308       0.07692308 </v>
   <v>      -0.38461538      -0.07692308       0.07692308 </v>
   <v>      -0.30769231      -0.07692308       0.07692308 </v>
   <v>      -0.23076923      -0.07692308       0.07692308 </v>
   <v>      -0.15384615      -0.07692308       0.07692308 </v>
   <v>      -0.07692308      -0.07692308       0.07692308 </v>
   <v>       0.00000000       0.00000000       0.15384615 </v>
   <v>       0.07692308      -0.00000000       0.15384615 </v>
   <v>       0.15384615       0.00000000       0.15384615 </v>
   <v>       0.23076923       0.00000000       0.15384615 </v>
   <v>       0.30769231       0.00000000       0.15384615 </v>
   <v>       0.38461538       0.00000000       0.15384615 </v>
   <v>       0.46153846      -0.00000000       0.15384615 </v>
   <v>      -0.46153846      -0.00000000       0.15384615 </v>
   <v>      -0.38461538       0.00000000       0.15384615 </v>
   <v>      -0.30769231       0.00000000       0.15384615 </v>
   <v>      -0.23076923       0.00000000       0.15384615 </v>
   <v>      -0.15384615      -0.00000000       0.15384615 </v>
   <v>      -0.07692308       0.00000000       0.15384615 </v>
   <v>       0.00000000       0.07692308       0.15384615 </v>
   <v>       0.07692308       0.07692308       0.15384615 </v>
   <v>       0.15384615       0.07692308       0.15384615 </v>
   <v>       0.23076923       0.07692308       0.15384615 </v>
   <v>       0.30769231       0.07692308       0.15384615 </v>
   <v>       0.38461538       0.07692308       0.15384615 </v>
   <v>       0.46153846       0.07692308       0.15384615 </v>
   <v>      -0.46153846       0.07692308       0.15384615 </v>
   <v>      -0.38461538       0.07692308       0.15384615 </v>
   <v>      -0.30769231       0.07692308       0.15384615 </v>
   <v>      -0.23076923       0.07692308       0.15384615 </v>
   <v>      -0.15384615       0.07692308       0.15384615 </v>
   <v>      -0.07692308       0.07692308       0.15384615 </v>
   <v>      -0.00000000       0.15384615       0.15384615 </v>
   <v>       0.07692308       0.15384615       0.15384615 </v>
   <v>       0.15384615       0.15384615       0.15384615 </v>
   <v>       0.23076923       0.15384615       0.15384615 </v>
   <v>       0.30769231       0.15384615       0.15384615 </v>
   <v>       0.38461538       0.15384615       0.15384615 </v>
   <v>       0.46153846       0.15384615       0.15384615 </v>
   <v>      -0.46153846       0.15384615       0.15384615 </v>
   <v>      -0.38461538       0.15384615       0.15384615 </v>
   <v>      -0.30769231       0.15384615       0.15384615 </v>
   <v>      -0.23076923       0.15384615       0.15384615 </v>
   <v>      -0.15384615       0.15384615       0.15384615 </v>
   <v>      -0.07692308       0.15384615       0.15384615 </v>
   <v>       0.00000000       0.23076923       0.15384615 </v>
   <v>       0.07692308       0.23076923       0.15384615 </v>
   <v>       0.15384615       0.23076923       0.15384615 </v>
   <v>       0.23076923       0.23076923       0.15384615 </v>
   <v>       0.30769231       0.23076923       0.15384615 </v>
   <v>       0.38461538       0.23076923       0.15384615 </v>
   <v>       0.46153846       0.23076923       0.15384615 </v>
   <v>      -0.46153846       0.23076923       0.15384615 </v>
   <v>      -0.38461538       0.23076923       0.15384615 </v>
   <v>      -0.30769231       0.23076923       0.15384615 </v>
   <v>      -0.23076923       0.23076923       0.15384615 </v>
   <v>      -0.15384615       0.23076923       0.15384615 </v>
   <v>      -0.07692308       0.23076923       0.15384615 </v>
   <v>       0.00000000       0.30769231       0.15384615 </v>
   <v>       0.07692308       0.30769231       0.15384615 </v>
   <v>       0.15384615       0.30769231       0.15384615 </v>
   <v>       0.23076923       0.30769231       0.15384615 </v>
   <v>       0.30769231       0.30769231       0.15384615 </v>
   <v>       0.38461538       0.30769231       0.15384615 </v>
   <v>       0.46153846       0.30769231       0.15384615 </v>
   <v>      -0.46153846       0.30769231       0.15384615 </v>
   <v>      -0.38461538       0.30769231       0.15384615 </v>
   <v>      -0.30769231       0.30769231       0.15384615 </v>
   <v>      -0.23076923       0.30769231       0.15384615 </v>
   <v>      -0.15384615       0.30769231       0.15384615 </v>
   <v>      -0.07692308       0.30769231       0.15384615 </v>
   <v>      -0.00000000       0.38461538       0.15384615 </v>
   <v>       0.07692308       0.38461538       0.15384615 </v>
   <v>       0.15384615       0.38461538       0.15384615 </v>
   <v>       0.23076923       0.38461538       0.15384615 </v>
   <v>       0.30769231       0.38461538       0.15384615 </v>
   <v>       0.38461538       0.38461538       0.15384615 </v>
   <v>       0.46153846       0.38461538       0.15384615 </v>
   <v>      -0.46153846       0.38461538       0.15384615 </v>
   <v>      -0.38461538       0.38461538       0.15384615 </v>
   <v>      -0.30769231       0.38461538       0.15384615 </v>
   <v>      -0.23076923       0.38461538       0.15384615 </v>
   <v>      -0.15384615       0.38461538       0.15384615 </v>
   <v>      -0.07692308       0.38461538       0.15384615 </v>
   <v>      -0.00000000       0.46153846       0.15384615 </v>
   <v>       0.07692308       0.46153846       0.15384615 </v>
   <v>       0.15384615       0.46153846       0.15384615 </v>
   <v>       0.23076923       0.46153846       0.15384615 </v>
   <v>       0.30769231       0.46153846       0.15384615 </v>
   <v>       0.38461538       0.46153846       0.15384615 </v>
   <v>       0.46153846       0.46153846       0.15384615 </v>
   <v>      -0.46153846       0.46153846       0.15384615 </v>
   <v>      -0.38461538       0.46153846       0.15384615 </v>
   <v>      -0.30769231       0.46153846       0.15384615 </v>
   <v>      -0.23076923       0.46153846       0.15384615 </v>
   <v>      -0.15384615       0.46153846       0.15384615 </v>
   <v>      -0.07692308       0.46153846       0.15384615 </v>
   <v>       0.00000000      -0.46153846       0.15384615 </v>
   <v>       0.07692308      -0.46153846       0.15384615 </v>
   <v>       0.15384615      -0.46153846       0.15384615 </v>
   <v>       0.23076923      -0.46153846       0.15384615 </v>
   <v>       0.30769231      -0.46153846       0.15384615 </v>
   <v>       0.38461538      -0.46153846       0.15384615 </v>
   <v>       0.46153846      -0.46153846       0.15384615 </v>
   <v>      -0.46153846      -0.46153846       0.15384615 </v>
   <v>      -0.38461538      -0.46153846       0.15384615 </v>
   <v>      -0.30769231      -0.46153846       0.15384615 </v>
   <v>      -0.23076923      -0.46153846       0.15384615 </v>
   <v>      -0.15384615      -0.46153846       0.15384615 </v>
   <v>      -0.07692308      -0.46153846       0.15384615 </v>
   <v>       0.00000000      -0.38461538       0.15384615 </v>
   <v>       0.07692308      -0.38461538       0.15384615 </v>
   <v>       0.15384615      -0.38461538       0.15384615 </v>
   <v>       0.23076923      -0.38461538       0.15384615 </v>
   <v>       0.30769231      -0.38461538       0.15384615 </v>
   <v>       0.38461538      -0.38461538       0.15384615 </v>
   <v>       0.46153846      -0.38461538       0.15384615 </v>
   <v>      -0.46153846      -0.38461538       0.15384615 </v>
   <v>      -0.38461538      -0.38461538       0.15384615 </v>
   <v>      -0.30769231      -0.38461538       0.15384615 </v>
   <v>      -0.23076923      -0.38461538       0.15384615 </v>
   <v>      -0.15384615      -0.38461538       0.15384615 </v>
   <v>      -0.07692308      -0.38461538       0.15384615 </v>
   <v>       0.00000000      -0.30769231       0.15384615 </v>
   <v>       0.07692308      -0.30769231       0.15384615 </v>
   <v>       0.15384615      -0.30769231       0.15384615 </v>
   <v>       0.23076923      -0.30769231       0.15384615 </v>
   <v>       0.30769231      -0.30769231       0.15384615 </v>
   <v>       0.38461538      -0.30769231       0.15384615 </v>
   <v>       0.46153846      -0.30769231       0.15384615 </v>
   <v>      -0.46153846      -0.30769231       0.15384615 </v>
   <v>      -0.38461538      -0.30769231       0.15384615 </v>
   <v>      -0.30769231      -0.30769231       0.15384615 </v>
   <v>      -0.23076923      -0.30769231       0.15384615 </v>
   <v>      -0.15384615      -0.30769231       0.15384615 </v>
   <v>      -0.07692308      -0.30769231       0.15384615 </v>
   <v>       0.00000000      -0.23076923       0.15384615 </v>
   <v>       0.07692308      -0.23076923       0.15384615 </v>
   <v>       0.15384615      -0.23076923       0.15384615 </v>
   <v>       0.23076923      -0.23076923       0.15384615 </v>
   <v>       0.30769231      -0.23076923       0.15384615 </v>
   <v>       0.38461538      -0.23076923       0.15384615 </v>
   <v>       0.46153846      -0.23076923       0.15384615 </v>
   <v>      -0.46153846      -0.23076923       0.15384615 </v>
   <v>      -0.38461538      -0.23076923       0.15384615 </v>
   <v>      -0.30769231      -0.23076923       0.15384615 </v>
   <v>      -0.23076923      -0.23076923       0.15384615 </v>
   <v>      -0.15384615      -0.23076923       0.15384615 </v>
   <v>      -0.07692308      -0.23076923       0.15384615 </v>
   <v>       0.00000000      -0.15384615       0.15384615 </v>
   <v>       0.07692308      -0.15384615       0.15384615 </v>
   <v>       0.15384615      -0.15384615       0.15384615 </v>
   <v>       0.23076923      -0.15384615       0.15384615 </v>
   <v>       0.30769231      -0.15384615       0.15384615 </v>
   <v>       0.38461538      -0.15384615       0.15384615 </v>
   <v>       0.46153846      -0.15384615       0.15384615 </v>
   <v>      -0.46153846      -0.15384615       0.15384615 </v>
   <v>      -0.38461538      -0.15384615       0.15384615 </v>
   <v>      -0.30769231      -0.15384615       0.15384615 </v>
   <v>      -0.23076923      -0.15384615       0.15384615 </v>
   <v>      -0.15384615      -0.15384615       0.15384615 </v>
   <v>      -0.07692308      -0.15384615       0.15384615 </v>
   <v>       0.00000000      -0.07692308       0.15384615 </v>
   <v>       0.07692308      -0.07692308       0.15384615 </v>
   <v>       0.15384615      -0.07692308       0.15384615 </v>
   <v>       0.23076923      -0.07692308       0.15384615 </v>
   <v>       0.30769231      -0.07692308       0.15384615 </v>
   <v>       0.38461538      -0.07692308       0.15384615 </v>
   <v>       0.46153846      -0.07692308       0.15384615 </v>
   <v>      -0.46153846      -0.07692308       0.15384615 </v>
   <v>      -0.38461538      -0.07692308       0.15384615 </v>
   <v>      -0.30769231      -0.07692308       0.15384615 </v>
   <v>      -0.23076923      -0.07692308       0.15384615 </v>
   <v>      -0.15384615      -0.07692308       0.15384615 </v>
   <v>      -0.07692308      -0.07692308       0.15384615 </v>
   <v>       0.00000000       0.00000000       0.23076923 </v>
   <v>       0.07692308      -0.00000000       0.23076923 </v>
   <v>       0.15384615      -0.00000000       0.23076923 </v>
   <v>       0.23076923      -0.00000000       0.23076923 </v>
   <v>       0.30769231       0.00000000       0.23076923 </v>
   <v>       0.38461538       0.00000000       0.23076923 </v>
   <v>       0.46153846      -0.00000000       0.23076923 </v>
   <v>      -0.46153846      -0.00000000       0.23076923 </v>
   <v>      -0.38461538       0.00000000       0.23076923 </v>
   <v>      -0.30769231       0.00000000       0.23076923 </v>
   <v>      -0.23076923      -0.00000000       0.23076923 </v>
   <v>      -0.15384615      -0.00000000       0.23076923 </v>
   <v>      -0.07692308       0.00000000       0.23076923 </v>
   <v>      -0.00000000       0.07692308       0.23076923 </v>
   <v>       0.07692308       0.07692308       0.23076923 </v>
   <v>       0.15384615       0.07692308       0.23076923 </v>
   <v>       0.23076923       0.07692308       0.23076923 </v>
   <v>       0.30769231       0.07692308       0.23076923 </v>
   <v>       0.38461538       0.07692308       0.23076923 </v>
   <v>       0.46153846       0.07692308       0.23076923 </v>
   <v>      -0.46153846       0.07692308       0.23076923 </v>
   <v>      -0.38461538       0.07692308       0.23076923 </v>
   <v>      -0.30769231       0.07692308       0.23076923 </v>
   <v>      -0.23076923       0.07692308       0.23076923 </v>
   <v>      -0.15384615       0.07692308       0.23076923 </v>
   <v>      -0.07692308       0.07692308       0.23076923 </v>
   <v>       0.00000000       0.15384615       0.23076923 </v>
   <v>       0.07692308       0.15384615       0.23076923 </v>
   <v>       0.15384615       0.15384615       0.23076923 </v>
   <v>       0.23076923       0.15384615       0.23076923 </v>
   <v>       0.30769231       0.15384615       0.23076923 </v>
   <v>       0.38461538       0.15384615       0.23076923 </v>
   <v>       0.46153846       0.15384615       0.23076923 </v>
   <v>      -0.46153846       0.15384615       0.23076923 </v>
   <v>      -0.38461538       0.15384615       0.23076923 </v>
   <v>      -0.30769231       0.15384615       0.23076923 </v>
   <v>      -0.23076923       0.15384615       0.23076923 </v>
   <v>      -0.15384615       0.15384615       0.23076923 </v>
   <v>      -0.07692308       0.15384615       0.23076923 </v>
   <v>      -0.00000000       0.23076923       0.23076923 </v>
   <v>       0.07692308       0.23076923       0.23076923 </v>
   <v>       0.15384615       0.23076923       0.23076923 </v>
   <v>       0.23076923       0.23076923       0.23076923 </v>
   <v>       0.30769231       0.23076923       0.23076923 </v>
   <v>       0.38461538       0.23076923       0.23076923 </v>
   <v>       0.46153846       0.23076923       0.23076923 </v>
   <v>      -0.46153846       0.23076923       0.23076923 </v>
   <v>      -0.38461538       0.23076923       0.23076923 </v>
   <v>      -0.30769231       0.23076923       0.23076923 </v>
   <v>      -0.23076923       0.23076923       0.23076923 </v>
   <v>      -0.15384615       0.23076923       0.23076923 </v>
   <v>      -0.07692308       0.23076923       0.23076923 </v>
   <v>      -0.00000000       0.30769231       0.23076923 </v>
   <v>       0.07692308       0.30769231       0.23076923 </v>
   <v>       0.15384615       0.30769231       0.23076923 </v>
   <v>       0.23076923       0.30769231       0.23076923 </v>
   <v>       0.30769231       0.30769231       0.23076923 </v>
   <v>       0.38461538       0.30769231       0.23076923 </v>
   <v>       0.46153846       0.30769231       0.23076923 </v>
   <v>      -0.46153846       0.30769231       0.23076923 </v>
   <v>      -0.38461538       0.30769231       0.23076923 </v>
   <v>      -0.30769231       0.30769231       0.23076923 </v>
   <v>      -0.23076923       0.30769231       0.23076923 </v>
   <v>      -0.15384615       0.30769231       0.23076923 </v>
   <v>      -0.07692308       0.30769231       0.23076923 </v>
   <v>      -0.00000000       0.38461538       0.23076923 </v>
   <v>       0.07692308       0.38461538       0.23076923 </v>
   <v>       0.15384615       0.38461538       0.23076923 </v>
   <v>       0.23076923       0.38461538       0.23076923 </v>
   <v>       0.30769231       0.38461538       0.23076923 </v>
   <v>       0.38461538       0.38461538       0.23076923 </v>
   <v>       0.46153846       0.38461538       0.23076923 </v>
   <v>      -0.46153846       0.38461538       0.23076923 </v>
   <v>      -0.38461538       0.38461538       0.23076923 </v>
   <v>      -0.30769231       0.38461538       0.23076923 </v>
   <v>      -0.23076923       0.38461538       0.23076923 </v>
   <v>      -0.15384615       0.38461538       0.23076923 </v>
   <v>      -0.07692308       0.38461538       0.23076923 </v>
   <v>       0.00000000       0.46153846       0.23076923 </v>
   <v>       0.07692308       0.46153846       0.23076923 </v>
   <v>       0.15384615       0.46153846       0.23076923 </v>
   <v>       0.23076923       0.46153846       0.23076923 </v>
   <v>       0.30769231       0.46153846       0.23076923 </v>
   <v>       0.38461538       0.46153846       0.23076923 </v>
   <v>       0.46153846       0.46153846       0.23076923 </v>
   <v>      -0.46153846       0.46153846       0.23076923 </v>
   <v>      -0.38461538       0.46153846       0.23076923 </v>
   <v>      -0.30769231       0.46153846       0.23076923 </v>
   <v>      -0.23076923       0.46153846       0.23076923 </v>
   <v>      -0.15384615       0.46153846       0.23076923 </v>
   <v>      -0.07692308       0.46153846       0.23076923 </v>
   <v>      -0.00000000      -0.46153846       0.23076923 </v>
   <v>       0.07692308      -0.46153846       0.23076923 </v>
   <v>       0.15384615      -0.46153846       0.23076923 </v>
   <v>       0.23076923      -0.46153846       0.23076923 </v>
   <v>       0.30769231      -0.46153846       0.23076923 </v>
   <v>       0.38461538      -0.46153846       0.23076923 </v>
   <v>       0.46153846      -0.46153846       0.23076923 </v>
   <v>      -0.46153846      -0.46153846       0.23076923 </v>
   <v>      -0.38461538      -0.46153846       0.23076923 </v>
   <v>      -0.30769231      -0.46153846       0.23076923 </v>
   <v>      -0.23076923      -0.46153846       0.23076923 </v>
   <v>      -0.15384615      -0.46153846       0.23076923 </v>
   <v>      -0.07692308      -0.46153846       0.23076923 </v>
   <v>       0.00000000      -0.38461538       0.23076923 </v>
   <v>       0.07692308      -0.38461538       0.23076923 </v>
   <v>       0.15384615      -0.38461538       0.23076923 </v>
   <v>       0.23076923      -0.38461538       0.23076923 </v>
   <v>       0.30769231      -0.38461538       0.23076923 </v>
   <v>       0.38461538      -0.38461538       0.23076923 </v>
   <v>       0.46153846      -0.38461538       0.23076923 </v>
   <v>      -0.46153846      -0.38461538       0.23076923 </v>
   <v>      -0.38461538      -0.38461538       0.23076923 </v>
   <v>      -0.30769231      -0.38461538       0.23076923 </v>
   <v>      -0.23076923      -0.38461538       0.23076923 </v>
   <v>      -0.15384615      -0.38461538       0.23076923 </v>
   <v>      -0.07692308      -0.38461538       0.23076923 </v>
   <v>       0.00000000      -0.30769231       0.23076923 </v>
   <v>       0.07692308      -0.30769231       0.23076923 </v>
   <v>       0.15384615      -0.30769231       0.23076923 </v>
   <v>       0.23076923      -0.30769231       0.23076923 </v>
   <v>       0.30769231      -0.30769231       0.23076923 </v>
   <v>       0.38461538      -0.30769231       0.23076923 </v>
   <v>       0.46153846      -0.30769231       0.23076923 </v>
   <v>      -0.46153846      -0.30769231       0.23076923 </v>
   <v>      -0.38461538      -0.30769231       0.23076923 </v>
   <v>      -0.30769231      -0.30769231       0.23076923 </v>
   <v>      -0.23076923      -0.30769231       0.23076923 </v>
   <v>      -0.15384615      -0.30769231       0.23076923 </v>
   <v>      -0.07692308      -0.30769231       0.23076923 </v>
   <v>       0.00000000      -0.23076923       0.23076923 </v>
   <v>       0.07692308      -0.23076923       0.23076923 </v>
   <v>       0.15384615      -0.23076923       0.23076923 </v>
   <v>       0.23076923      -0.23076923       0.23076923 </v>
   <v>       0.30769231      -0.23076923       0.23076923 </v>
   <v>       0.38461538      -0.23076923       0.23076923 </v>
   <v>       0.46153846      -0.23076923       0.23076923 </v>
   <v>      -0.46153846      -0.23076923       0.23076923 </v>
   <v>      -0.38461538      -0.23076923       0.23076923 </v>
   <v>      -0.30769231      -0.23076923       0.23076923 </v>
   <v>      -0.23076923      -0.23076923       0.23076923 </v>
   <v>      -0.15384615      -0.23076923       0.23076923 </v>
   <v>      -0.07692308      -0.23076923       0.23076923 </v>
   <v>       0.00000000      -0.15384615       0.23076923 </v>
   <v>       0.07692308      -0.15384615       0.23076923 </v>
   <v>       0.15384615      -0.15384615       0.23076923 </v>
   <v>       0.23076923      -0.15384615       0.23076923 </v>
   <v>       0.30769231      -0.15384615       0.23076923 </v>
   <v>       0.38461538      -0.15384615       0.23076923 </v>
   <v>       0.46153846      -0.15384615       0.23076923 </v>
   <v>      -0.46153846      -0.15384615       0.23076923 </v>
   <v>      -0.38461538      -0.15384615       0.23076923 </v>
   <v>      -0.30769231      -0.15384615       0.23076923 </v>
   <v>      -0.23076923      -0.15384615       0.23076923 </v>
   <v>      -0.15384615      -0.15384615       0.23076923 </v>
   <v>      -0.07692308      -0.15384615       0.23076923 </v>
   <v>       0.00000000      -0.07692308       0.23076923 </v>
   <v>       0.07692308      -0.07692308       0.23076923 </v>
   <v>       0.15384615      -0.07692308       0.23076923 </v>
   <v>       0.23076923      -0.07692308       0.23076923 </v>
   <v>       0.30769231      -0.07692308       0.23076923 </v>
   <v>       0.38461538      -0.07692308       0.23076923 </v>
   <v>       0.46153846      -0.07692308       0.23076923 </v>
   <v>      -0.46153846      -0.07692308       0.23076923 </v>
   <v>      -0.38461538      -0.07692308       0.23076923 </v>
   <v>      -0.30769231      -0.07692308       0.23076923 </v>
   <v>      -0.23076923      -0.07692308       0.23076923 </v>
   <v>      -0.15384615      -0.07692308       0.23076923 </v>
   <v>      -0.07692308      -0.07692308       0.23076923 </v>
   <v>       0.00000000      -0.00000000       0.30769231 </v>
   <v>       0.07692308      -0.00000000       0.30769231 </v>
   <v>       0.15384615      -0.00000000       0.30769231 </v>
   <v>       0.23076923      -0.00000000       0.30769231 </v>
   <v>       0.30769231       0.00000000       0.30769231 </v>
   <v>       0.38461538      -0.00000000       0.30769231 </v>
   <v>       0.46153846      -0.00000000       0.30769231 </v>
   <v>      -0.46153846      -0.00000000       0.30769231 </v>
   <v>      -0.38461538       0.00000000       0.30769231 </v>
   <v>      -0.30769231       0.00000000       0.30769231 </v>
   <v>      -0.23076923       0.00000000       0.30769231 </v>
   <v>      -0.15384615       0.00000000       0.30769231 </v>
   <v>      -0.07692308      -0.00000000       0.30769231 </v>
   <v>       0.00000000       0.07692308       0.30769231 </v>
   <v>       0.07692308       0.07692308       0.30769231 </v>
   <v>       0.15384615       0.07692308       0.30769231 </v>
   <v>       0.23076923       0.07692308       0.30769231 </v>
   <v>       0.30769231       0.07692308       0.30769231 </v>
   <v>       0.38461538       0.07692308       0.30769231 </v>
   <v>       0.46153846       0.07692308       0.30769231 </v>
   <v>      -0.46153846       0.07692308       0.30769231 </v>
   <v>      -0.38461538       0.07692308       0.30769231 </v>
   <v>      -0.30769231       0.07692308       0.30769231 </v>
   <v>      -0.23076923       0.07692308       0.30769231 </v>
   <v>      -0.15384615       0.07692308       0.30769231 </v>
   <v>      -0.07692308       0.07692308       0.30769231 </v>
   <v>       0.00000000       0.15384615       0.30769231 </v>
   <v>       0.07692308       0.15384615       0.30769231 </v>
   <v>       0.15384615       0.15384615       0.30769231 </v>
   <v>       0.23076923       0.15384615       0.30769231 </v>
   <v>       0.30769231       0.15384615       0.30769231 </v>
   <v>       0.38461538       0.15384615       0.30769231 </v>
   <v>       0.46153846       0.15384615       0.30769231 </v>
   <v>      -0.46153846       0.15384615       0.30769231 </v>
   <v>      -0.38461538       0.15384615       0.30769231 </v>
   <v>      -0.30769231       0.15384615       0.30769231 </v>
   <v>      -0.23076923       0.15384615       0.30769231 </v>
   <v>      -0.15384615       0.15384615       0.30769231 </v>
   <v>      -0.07692308       0.15384615       0.30769231 </v>
   <v>       0.00000000       0.23076923       0.30769231 </v>
   <v>       0.07692308       0.23076923       0.30769231 </v>
   <v>       0.15384615       0.23076923       0.30769231 </v>
   <v>       0.23076923       0.23076923       0.30769231 </v>
   <v>       0.30769231       0.23076923       0.30769231 </v>
   <v>       0.38461538       0.23076923       0.30769231 </v>
   <v>       0.46153846       0.23076923       0.30769231 </v>
   <v>      -0.46153846       0.23076923       0.30769231 </v>
   <v>      -0.38461538       0.23076923       0.30769231 </v>
   <v>      -0.30769231       0.23076923       0.30769231 </v>
   <v>      -0.23076923       0.23076923       0.30769231 </v>
   <v>      -0.15384615       0.23076923       0.30769231 </v>
   <v>      -0.07692308       0.23076923       0.30769231 </v>
   <v>       0.00000000       0.30769231       0.30769231 </v>
   <v>       0.07692308       0.30769231       0.30769231 </v>
   <v>       0.15384615       0.30769231       0.30769231 </v>
   <v>       0.23076923       0.30769231       0.30769231 </v>
   <v>       0.30769231       0.30769231       0.30769231 </v>
   <v>       0.38461538       0.30769231       0.30769231 </v>
   <v>       0.46153846       0.30769231       0.30769231 </v>
   <v>      -0.46153846       0.30769231       0.30769231 </v>
   <v>      -0.38461538       0.30769231       0.30769231 </v>
   <v>      -0.30769231       0.30769231       0.30769231 </v>
   <v>      -0.23076923       0.30769231       0.30769231 </v>
   <v>      -0.15384615       0.30769231       0.30769231 </v>
   <v>      -0.07692308       0.30769231       0.30769231 </v>
   <v>       0.00000000       0.38461538       0.30769231 </v>
   <v>       0.07692308       0.38461538       0.30769231 </v>
   <v>       0.15384615       0.38461538       0.30769231 </v>
   <v>       0.23076923       0.38461538       0.30769231 </v>
   <v>       0.30769231       0.38461538       0.30769231 </v>
   <v>       0.38461538       0.38461538       0.30769231 </v>
   <v>       0.46153846       0.38461538       0.30769231 </v>
   <v>      -0.46153846       0.38461538       0.30769231 </v>
   <v>      -0.38461538       0.38461538       0.30769231 </v>
   <v>      -0.30769231       0.38461538       0.30769231 </v>
   <v>      -0.23076923       0.38461538       0.30769231 </v>
   <v>      -0.15384615       0.38461538       0.30769231 </v>
   <v>      -0.07692308       0.38461538       0.30769231 </v>
   <v>      -0.00000000       0.46153846       0.30769231 </v>
   <v>       0.07692308       0.46153846       0.30769231 </v>
   <v>       0.15384615       0.46153846       0.30769231 </v>
   <v>       0.23076923       0.46153846       0.30769231 </v>
   <v>       0.30769231       0.46153846       0.30769231 </v>
   <v>       0.38461538       0.46153846       0.30769231 </v>
   <v>       0.46153846       0.46153846       0.30769231 </v>
   <v>      -0.46153846       0.46153846       0.30769231 </v>
   <v>      -0.38461538       0.46153846       0.30769231 </v>
   <v>      -0.30769231       0.46153846       0.30769231 </v>
   <v>      -0.23076923       0.46153846       0.30769231 </v>
   <v>      -0.15384615       0.46153846       0.30769231 </v>
   <v>      -0.07692308       0.46153846       0.30769231 </v>
   <v>       0.00000000      -0.46153846       0.30769231 </v>
   <v>       0.07692308      -0.46153846       0.30769231 </v>
   <v>       0.15384615      -0.46153846       0.30769231 </v>
   <v>       0.23076923      -0.46153846       0.30769231 </v>
   <v>       0.30769231      -0.46153846       0.30769231 </v>
   <v>       0.38461538      -0.46153846       0.30769231 </v>
   <v>       0.46153846      -0.46153846       0.30769231 </v>
   <v>      -0.46153846      -0.46153846       0.30769231 </v>
   <v>      -0.38461538      -0.46153846       0.30769231 </v>
   <v>      -0.30769231      -0.46153846       0.30769231 </v>
   <v>      -0.23076923      -0.46153846       0.30769231 </v>
   <v>      -0.15384615      -0.46153846       0.30769231 </v>
   <v>      -0.07692308      -0.46153846       0.30769231 </v>
   <v>       0.00000000      -0.38461538       0.30769231 </v>
   <v>       0.07692308      -0.38461538       0.30769231 </v>
   <v>       0.15384615      -0.38461538       0.30769231 </v>
   <v>       0.23076923      -0.38461538       0.30769231 </v>
   <v>       0.30769231      -0.38461538       0.30769231 </v>
   <v>       0.38461538      -0.38461538       0.30769231 </v>
   <v>       0.46153846      -0.38461538       0.30769231 </v>
   <v>      -0.46153846      -0.38461538       0.30769231 </v>
   <v>      -0.38461538      -0.38461538       0.30769231 </v>
   <v>      -0.30769231      -0.38461538       0.30769231 </v>
   <v>      -0.23076923      -0.38461538       0.30769231 </v>
   <v>      -0.15384615      -0.38461538       0.30769231 </v>
   <v>      -0.07692308      -0.38461538       0.30769231 </v>
   <v>       0.00000000      -0.30769231       0.30769231 </v>
   <v>       0.07692308      -0.30769231       0.30769231 </v>
   <v>       0.15384615      -0.30769231       0.30769231 </v>
   <v>       0.23076923      -0.30769231       0.30769231 </v>
   <v>       0.30769231      -0.30769231       0.30769231 </v>
   <v>       0.38461538      -0.30769231       0.30769231 </v>
   <v>       0.46153846      -0.30769231       0.30769231 </v>
   <v>      -0.46153846      -0.30769231       0.30769231 </v>
   <v>      -0.38461538      -0.30769231       0.30769231 </v>
   <v>      -0.30769231      -0.30769231       0.30769231 </v>
   <v>      -0.23076923      -0.30769231       0.30769231 </v>
   <v>      -0.15384615      -0.30769231       0.30769231 </v>
   <v>      -0.07692308      -0.30769231       0.30769231 </v>
   <v>       0.00000000      -0.23076923       0.30769231 </v>
   <v>       0.07692308      -0.23076923       0.30769231 </v>
   <v>       0.15384615      -0.23076923       0.30769231 </v>
   <v>       0.23076923      -0.23076923       0.30769231 </v>
   <v>       0.30769231      -0.23076923       0.30769231 </v>
   <v>       0.38461538      -0.23076923       0.30769231 </v>
   <v>       0.46153846      -0.23076923       0.30769231 </v>
   <v>      -0.46153846      -0.23076923       0.30769231 </v>
   <v>      -0.38461538      -0.23076923       0.30769231 </v>
   <v>      -0.30769231      -0.23076923       0.30769231 </v>
   <v>      -0.23076923      -0.23076923       0.30769231 </v>
   <v>      -0.15384615      -0.23076923       0.30769231 </v>
   <v>      -0.07692308      -0.23076923       0.30769231 </v>
   <v>       0.00000000      -0.15384615       0.30769231 </v>
   <v>       0.07692308      -0.15384615       0.30769231 </v>
   <v>       0.15384615      -0.15384615       0.30769231 </v>
   <v>       0.23076923      -0.15384615       0.30769231 </v>
   <v>       0.30769231      -0.15384615       0.30769231 </v>
   <v>       0.38461538      -0.15384615       0.30769231 </v>
   <v>       0.46153846      -0.15384615       0.30769231 </v>
   <v>      -0.46153846      -0.15384615       0.30769231 </v>
   <v>      -0.38461538      -0.15384615       0.30769231 </v>
   <v>      -0.30769231      -0.15384615       0.30769231 </v>
   <v>      -0.23076923      -0.15384615       0.30769231 </v>
   <v>      -0.15384615      -0.15384615       0.30769231 </v>
   <v>      -0.07692308      -0.15384615       0.30769231 </v>
   <v>       0.00000000      -0.07692308       0.30769231 </v>
   <v>       0.07692308      -0.07692308       0.30769231 </v>
   <v>       0.15384615      -0.07692308       0.30769231 </v>
   <v>       0.23076923      -0.07692308       0.30769231 </v>
   <v>       0.30769231      -0.07692308       0.30769231 </v>
   <v>       0.38461538      -0.07692308       0.30769231 </v>
   <v>       0.46153846      -0.07692308       0.30769231 </v>
   <v>      -0.46153846      -0.07692308       0.30769231 </v>
   <v>      -0.38461538      -0.07692308       0.30769231 </v>
   <v>      -0.30769231      -0.07692308       0.30769231 </v>
   <v>      -0.23076923      -0.07692308       0.30769231 </v>
   <v>      -0.15384615      -0.07692308       0.30769231 </v>
   <v>      -0.07692308      -0.07692308       0.30769231 </v>
   <v>       0.00000000      -0.00000000       0.38461538 </v>
   <v>       0.07692308      -0.00000000       0.38461538 </v>
   <v>       0.15384615      -0.00000000       0.38461538 </v>
   <v>       0.23076923      -0.00000000       0.38461538 </v>
   <v>       0.30769231       0.00000000       0.38461538 </v>
   <v>       0.38461538      -0.00000000       0.38461538 </v>
   <v>       0.46153846      -0.00000000       0.38461538 </v>
   <v>      -0.46153846      -0.00000000       0.38461538 </v>
   <v>      -0.38461538      -0.00000000       0.38461538 </v>
   <v>      -0.30769231       0.00000000       0.38461538 </v>
   <v>      -0.23076923       0.00000000       0.38461538 </v>
   <v>      -0.15384615      -0.00000000       0.38461538 </v>
   <v>      -0.07692308      -0.00000000       0.38461538 </v>
   <v>       0.00000000       0.07692308       0.38461538 </v>
   <v>       0.07692308       0.07692308       0.38461538 </v>
   <v>       0.15384615       0.07692308       0.38461538 </v>
   <v>       0.23076923       0.07692308       0.38461538 </v>
   <v>       0.30769231       0.07692308       0.38461538 </v>
   <v>       0.38461538       0.07692308       0.38461538 </v>
   <v>       0.46153846       0.07692308       0.38461538 </v>
   <v>      -0.46153846       0.07692308       0.38461538 </v>
   <v>      -0.38461538       0.07692308       0.38461538 </v>
   <v>      -0.30769231       0.07692308       0.38461538 </v>
   <v>      -0.23076923       0.07692308       0.38461538 </v>
   <v>      -0.15384615       0.07692308       0.38461538 </v>
   <v>      -0.07692308       0.07692308       0.38461538 </v>
   <v>       0.00000000       0.15384615       0.38461538 </v>
   <v>       0.07692308       0.15384615       0.38461538 </v>
   <v>       0.15384615       0.15384615       0.38461538 </v>
   <v>       0.23076923       0.15384615       0.38461538 </v>
   <v>       0.30769231       0.15384615       0.38461538 </v>
   <v>       0.38461538       0.15384615       0.38461538 </v>
   <v>       0.46153846       0.15384615       0.38461538 </v>
   <v>      -0.46153846       0.15384615       0.38461538 </v>
   <v>      -0.38461538       0.15384615       0.38461538 </v>
   <v>      -0.30769231       0.15384615       0.38461538 </v>
   <v>      -0.23076923       0.15384615       0.38461538 </v>
   <v>      -0.15384615       0.15384615       0.38461538 </v>
   <v>      -0.07692308       0.15384615       0.38461538 </v>
   <v>       0.00000000       0.23076923       0.38461538 </v>
   <v>       0.07692308       0.23076923       0.38461538 </v>
   <v>       0.15384615       0.23076923       0.38461538 </v>
   <v>       0.23076923       0.23076923       0.38461538 </v>
   <v>       0.30769231       0.23076923       0.38461538 </v>
   <v>       0.38461538       0.23076923       0.38461538 </v>
   <v>       0.46153846       0.23076923       0.38461538 </v>
   <v>      -0.46153846       0.23076923       0.38461538 </v>
   <v>      -0.38461538       0.23076923       0.38461538 </v>
   <v>      -0.30769231       0.23076923       0.38461538 </v>
   <v>      -0.23076923       0.23076923       0.38461538 </v>
   <v>      -0.15384615       0.23076923       0.38461538 </v>
   <v>      -0.07692308       0.23076923       0.38461538 </v>
   <v>       0.00000000       0.30769231       0.38461538 </v>
   <v>       0.07692308       0.30769231       0.38461538 </v>
   <v>       0.15384615       0.30769231       0.38461538 </v>
   <v>       0.23076923       0.30769231       0.38461538 </v>
   <v>       0.30769231       0.30769231       0.38461538 </v>
   <v>       0.38461538       0.30769231       0.38461538 </v>
   <v>       0.46153846       0.30769231       0.38461538 </v>
   <v>      -0.46153846       0.30769231       0.38461538 </v>
   <v>      -0.38461538       0.30769231       0.38461538 </v>
   <v>      -0.30769231       0.30769231       0.38461538 </v>
   <v>      -0.23076923       0.30769231       0.38461538 </v>
   <v>      -0.15384615       0.30769231       0.38461538 </v>
   <v>      -0.07692308       0.30769231       0.38461538 </v>
   <v>       0.00000000       0.38461538       0.38461538 </v>
   <v>       0.07692308       0.38461538       0.38461538 </v>
   <v>       0.15384615       0.38461538       0.38461538 </v>
   <v>       0.23076923       0.38461538       0.38461538 </v>
   <v>       0.30769231       0.38461538       0.38461538 </v>
   <v>       0.38461538       0.38461538       0.38461538 </v>
   <v>       0.46153846       0.38461538       0.38461538 </v>
   <v>      -0.46153846       0.38461538       0.38461538 </v>
   <v>      -0.38461538       0.38461538       0.38461538 </v>
   <v>      -0.30769231       0.38461538       0.38461538 </v>
   <v>      -0.23076923       0.38461538       0.38461538 </v>
   <v>      -0.15384615       0.38461538       0.38461538 </v>
   <v>      -0.07692308       0.38461538       0.38461538 </v>
   <v>       0.00000000       0.46153846       0.38461538 </v>
   <v>       0.07692308       0.46153846       0.38461538 </v>
   <v>       0.15384615       0.46153846       0.38461538 </v>
   <v>       0.23076923       0.46153846       0.38461538 </v>
   <v>       0.30769231       0.46153846       0.38461538 </v>
   <v>       0.38461538       0.46153846       0.38461538 </v>
   <v>       0.46153846       0.46153846       0.38461538 </v>
   <v>      -0.46153846       0.46153846       0.38461538 </v>
   <v>      -0.38461538       0.46153846       0.38461538 </v>
   <v>      -0.30769231       0.46153846       0.38461538 </v>
   <v>      -0.23076923       0.46153846       0.38461538 </v>
   <v>      -0.15384615       0.46153846       0.38461538 </v>
   <v>      -0.07692308       0.46153846       0.38461538 </v>
   <v>       0.00000000      -0.46153846       0.38461538 </v>
   <v>       0.07692308      -0.46153846       0.38461538 </v>
   <v>       0.15384615      -0.46153846       0.38461538 </v>
   <v>       0.23076923      -0.46153846       0.38461538 </v>
   <v>       0.30769231      -0.46153846       0.38461538 </v>
   <v>       0.38461538      -0.46153846       0.38461538 </v>
   <v>       0.46153846      -0.46153846       0.38461538 </v>
   <v>      -0.46153846      -0.46153846       0.38461538 </v>
   <v>      -0.38461538      -0.46153846       0.38461538 </v>
   <v>      -0.30769231      -0.46153846       0.38461538 </v>
   <v>      -0.23076923      -0.46153846       0.38461538 </v>
   <v>      -0.15384615      -0.46153846       0.38461538 </v>
   <v>      -0.07692308      -0.46153846       0.38461538 </v>
   <v>       0.00000000      -0.38461538       0.38461538 </v>
   <v>       0.07692308      -0.38461538       0.38461538 </v>
   <v>       0.15384615      -0.38461538       0.38461538 </v>
   <v>       0.23076923      -0.38461538       0.38461538 </v>
   <v>       0.30769231      -0.38461538       0.38461538 </v>
   <v>       0.38461538      -0.38461538       0.38461538 </v>
   <v>       0.46153846      -0.38461538       0.38461538 </v>
   <v>      -0.46153846      -0.38461538       0.38461538 </v>
   <v>      -0.38461538      -0.38461538       0.38461538 </v>
   <v>      -0.30769231      -0.38461538       0.38461538 </v>
   <v>      -0.23076923      -0.38461538       0.38461538 </v>
   <v>      -0.15384615      -0.38461538       0.38461538 </v>
   <v>      -0.07692308      -0.38461538       0.38461538 </v>
   <v>       0.00000000      -0.30769231       0.38461538 </v>
   <v>       0.07692308      -0.30769231       0.38461538 </v>
   <v>       0.15384615      -0.30769231       0.38461538 </v>
   <v>       0.23076923      -0.30769231       0.38461538 </v>
   <v>       0.30769231      -0.30769231       0.38461538 </v>
   <v>       0.38461538      -0.30769231       0.38461538 </v>
   <v>       0.46153846      -0.30769231       0.38461538 </v>
   <v>      -0.46153846      -0.30769231       0.38461538 </v>
   <v>      -0.38461538      -0.30769231       0.38461538 </v>
   <v>      -0.30769231      -0.30769231       0.38461538 </v>
   <v>      -0.23076923      -0.30769231       0.38461538 </v>
   <v>      -0.15384615      -0.30769231       0.38461538 </v>
   <v>      -0.07692308      -0.30769231       0.38461538 </v>
   <v>       0.00000000      -0.23076923       0.38461538 </v>
   <v>       0.07692308      -0.23076923       0.38461538 </v>
   <v>       0.15384615      -0.23076923       0.38461538 </v>
   <v>       0.23076923      -0.23076923       0.38461538 </v>
   <v>       0.30769231      -0.23076923       0.38461538 </v>
   <v>       0.38461538      -0.23076923       0.38461538 </v>
   <v>       0.46153846      -0.23076923       0.38461538 </v>
   <v>      -0.46153846      -0.23076923       0.38461538 </v>
   <v>      -0.38461538      -0.23076923       0.38461538 </v>
   <v>      -0.30769231      -0.23076923       0.38461538 </v>
   <v>      -0.23076923      -0.23076923       0.38461538 </v>
   <v>      -0.15384615      -0.23076923       0.38461538 </v>
   <v>      -0.07692308      -0.23076923       0.38461538 </v>
   <v>       0.00000000      -0.15384615       0.38461538 </v>
   <v>       0.07692308      -0.15384615       0.38461538 </v>
   <v>       0.15384615      -0.15384615       0.38461538 </v>
   <v>       0.23076923      -0.15384615       0.38461538 </v>
   <v>       0.30769231      -0.15384615       0.38461538 </v>
   <v>       0.38461538      -0.15384615       0.38461538 </v>
   <v>       0.46153846      -0.15384615       0.38461538 </v>
   <v>      -0.46153846      -0.15384615       0.38461538 </v>
   <v>      -0.38461538      -0.15384615       0.38461538 </v>
   <v>      -0.30769231      -0.15384615       0.38461538 </v>
   <v>      -0.23076923      -0.15384615       0.38461538 </v>
   <v>      -0.15384615      -0.15384615       0.38461538 </v>
   <v>      -0.07692308      -0.15384615       0.38461538 </v>
   <v>       0.00000000      -0.07692308       0.38461538 </v>
   <v>       0.07692308      -0.07692308       0.38461538 </v>
   <v>       0.15384615      -0.07692308       0.38461538 </v>
   <v>       0.23076923      -0.07692308       0.38461538 </v>
   <v>       0.30769231      -0.07692308       0.38461538 </v>
   <v>       0.38461538      -0.07692308       0.38461538 </v>
   <v>       0.46153846      -0.07692308       0.38461538 </v>
   <v>      -0.46153846      -0.07692308       0.38461538 </v>
   <v>      -0.38461538      -0.07692308       0.38461538 </v>
   <v>      -0.30769231      -0.07692308       0.38461538 </v>
   <v>      -0.23076923      -0.07692308       0.38461538 </v>
   <v>      -0.15384615      -0.07692308       0.38461538 </v>
   <v>      -0.07692308      -0.07692308       0.38461538 </v>
   <v>       0.00000000       0.00000000       0.46153846 </v>
   <v>       0.07692308      -0.00000000       0.46153846 </v>
   <v>       0.15384615      -0.00000000       0.46153846 </v>
   <v>       0.23076923      -0.00000000       0.46153846 </v>
   <v>       0.30769231       0.00000000       0.46153846 </v>
   <v>       0.38461538      -0.00000000       0.46153846 </v>
   <v>       0.46153846      -0.00000000       0.46153846 </v>
   <v>      -0.46153846      -0.00000000       0.46153846 </v>
   <v>      -0.38461538      -0.00000000       0.46153846 </v>
   <v>      -0.30769231      -0.00000000       0.46153846 </v>
   <v>      -0.23076923      -0.00000000       0.46153846 </v>
   <v>      -0.15384615       0.00000000       0.46153846 </v>
   <v>      -0.07692308       0.00000000       0.46153846 </v>
   <v>       0.00000000       0.07692308       0.46153846 </v>
   <v>       0.07692308       0.07692308       0.46153846 </v>
   <v>       0.15384615       0.07692308       0.46153846 </v>
   <v>       0.23076923       0.07692308       0.46153846 </v>
   <v>       0.30769231       0.07692308       0.46153846 </v>
   <v>       0.38461538       0.07692308       0.46153846 </v>
   <v>       0.46153846       0.07692308       0.46153846 </v>
   <v>      -0.46153846       0.07692308       0.46153846 </v>
   <v>      -0.38461538       0.07692308       0.46153846 </v>
   <v>      -0.30769231       0.07692308       0.46153846 </v>
   <v>      -0.23076923       0.07692308       0.46153846 </v>
   <v>      -0.15384615       0.07692308       0.46153846 </v>
   <v>      -0.07692308       0.07692308       0.46153846 </v>
   <v>       0.00000000       0.15384615       0.46153846 </v>
   <v>       0.07692308       0.15384615       0.46153846 </v>
   <v>       0.15384615       0.15384615       0.46153846 </v>
   <v>       0.23076923       0.15384615       0.46153846 </v>
   <v>       0.30769231       0.15384615       0.46153846 </v>
   <v>       0.38461538       0.15384615       0.46153846 </v>
   <v>       0.46153846       0.15384615       0.46153846 </v>
   <v>      -0.46153846       0.15384615       0.46153846 </v>
   <v>      -0.38461538       0.15384615       0.46153846 </v>
   <v>      -0.30769231       0.15384615       0.46153846 </v>
   <v>      -0.23076923       0.15384615       0.46153846 </v>
   <v>      -0.15384615       0.15384615       0.46153846 </v>
   <v>      -0.07692308       0.15384615       0.46153846 </v>
   <v>       0.00000000       0.23076923       0.46153846 </v>
   <v>       0.07692308       0.23076923       0.46153846 </v>
   <v>       0.15384615       0.23076923       0.46153846 </v>
   <v>       0.23076923       0.23076923       0.46153846 </v>
   <v>       0.30769231       0.23076923       0.46153846 </v>
   <v>       0.38461538       0.23076923       0.46153846 </v>
   <v>       0.46153846       0.23076923       0.46153846 </v>
   <v>      -0.46153846       0.23076923       0.46153846 </v>
   <v>      -0.38461538       0.23076923       0.46153846 </v>
   <v>      -0.30769231       0.23076923       0.46153846 </v>
   <v>      -0.23076923       0.23076923       0.46153846 </v>
   <v>      -0.15384615       0.23076923       0.46153846 </v>
   <v>      -0.07692308       0.23076923       0.46153846 </v>
   <v>       0.00000000       0.30769231       0.46153846 </v>
   <v>       0.07692308       0.30769231       0.46153846 </v>
   <v>       0.15384615       0.30769231       0.46153846 </v>
   <v>       0.23076923       0.30769231       0.46153846 </v>
   <v>       0.30769231       0.30769231       0.46153846 </v>
   <v>       0.38461538       0.30769231       0.46153846 </v>
   <v>       0.46153846       0.30769231       0.46153846 </v>
   <v>      -0.46153846       0.30769231       0.46153846 </v>
   <v>      -0.38461538       0.30769231       0.46153846 </v>
   <v>      -0.30769231       0.30769231       0.46153846 </v>
   <v>      -0.23076923       0.30769231       0.46153846 </v>
   <v>      -0.15384615       0.30769231       0.46153846 </v>
   <v>      -0.07692308       0.30769231       0.46153846 </v>
   <v>       0.00000000       0.38461538       0.46153846 </v>
   <v>       0.07692308       0.38461538       0.46153846 </v>
   <v>       0.15384615       0.38461538       0.46153846 </v>
   <v>       0.23076923       0.38461538       0.46153846 </v>
   <v>       0.30769231       0.38461538       0.46153846 </v>
   <v>       0.38461538       0.38461538       0.46153846 </v>
   <v>       0.46153846       0.38461538       0.46153846 </v>
   <v>      -0.46153846       0.38461538       0.46153846 </v>
   <v>      -0.38461538       0.38461538       0.46153846 </v>
   <v>      -0.30769231       0.38461538       0.46153846 </v>
   <v>      -0.23076923       0.38461538       0.46153846 </v>
   <v>      -0.15384615       0.38461538       0.46153846 </v>
   <v>      -0.07692308       0.38461538       0.46153846 </v>
   <v>      -0.00000000       0.46153846       0.46153846 </v>
   <v>       0.07692308       0.46153846       0.46153846 </v>
   <v>       0.15384615       0.46153846       0.46153846 </v>
   <v>       0.23076923       0.46153846       0.46153846 </v>
   <v>       0.30769231       0.46153846       0.46153846 </v>
   <v>       0.38461538       0.46153846       0.46153846 </v>
   <v>       0.46153846       0.46153846       0.46153846 </v>
   <v>      -0.46153846       0.46153846       0.46153846 </v>
   <v>      -0.38461538       0.46153846       0.46153846 </v>
   <v>      -0.30769231       0.46153846       0.46153846 </v>
   <v>      -0.23076923       0.46153846       0.46153846 </v>
   <v>      -0.15384615       0.46153846       0.46153846 </v>
   <v>      -0.07692308       0.46153846       0.46153846 </v>
   <v>       0.00000000      -0.46153846       0.46153846 </v>
   <v>       0.07692308      -0.46153846       0.46153846 </v>
   <v>       0.15384615      -0.46153846       0.46153846 </v>
   <v>       0.23076923      -0.46153846       0.46153846 </v>
   <v>       0.30769231      -0.46153846       0.46153846 </v>
   <v>       0.38461538      -0.46153846       0.46153846 </v>
   <v>       0.46153846      -0.46153846       0.46153846 </v>
   <v>      -0.46153846      -0.46153846       0.46153846 </v>
   <v>      -0.38461538      -0.46153846       0.46153846 </v>
   <v>      -0.30769231      -0.46153846       0.46153846 </v>
   <v>      -0.23076923      -0.46153846       0.46153846 </v>
   <v>      -0.15384615      -0.46153846       0.46153846 </v>
   <v>      -0.07692308      -0.46153846       0.46153846 </v>
   <v>       0.00000000      -0.38461538       0.46153846 </v>
   <v>       0.07692308      -0.38461538       0.46153846 </v>
   <v>       0.15384615      -0.38461538       0.46153846 </v>
   <v>       0.23076923      -0.38461538       0.46153846 </v>
   <v>       0.30769231      -0.38461538       0.46153846 </v>
   <v>       0.38461538      -0.38461538       0.46153846 </v>
   <v>       0.46153846      -0.38461538       0.46153846 </v>
   <v>      -0.46153846      -0.38461538       0.46153846 </v>
   <v>      -0.38461538      -0.38461538       0.46153846 </v>
   <v>      -0.30769231      -0.38461538       0.46153846 </v>
   <v>      -0.23076923      -0.38461538       0.46153846 </v>
   <v>      -0.15384615      -0.38461538       0.46153846 </v>
   <v>      -0.07692308      -0.38461538       0.46153846 </v>
   <v>       0.00000000      -0.30769231       0.46153846 </v>
   <v>       0.07692308      -0.30769231       0.46153846 </v>
   <v>       0.15384615      -0.30769231       0.46153846 </v>
   <v>       0.23076923      -0.30769231       0.46153846 </v>
   <v>       0.30769231      -0.30769231       0.46153846 </v>
   <v>       0.38461538      -0.30769231       0.46153846 </v>
   <v>       0.46153846      -0.30769231       0.46153846 </v>
   <v>      -0.46153846      -0.30769231       0.46153846 </v>
   <v>      -0.38461538      -0.30769231       0.46153846 </v>
   <v>      -0.30769231      -0.30769231       0.46153846 </v>
   <v>      -0.23076923      -0.30769231       0.46153846 </v>
   <v>      -0.15384615      -0.30769231       0.46153846 </v>
   <v>      -0.07692308      -0.30769231       0.46153846 </v>
   <v>       0.00000000      -0.23076923       0.46153846 </v>
   <v>       0.07692308      -0.23076923       0.46153846 </v>
   <v>       0.15384615      -0.23076923       0.46153846 </v>
   <v>       0.23076923      -0.23076923       0.46153846 </v>
   <v>       0.30769231      -0.23076923       0.46153846 </v>
   <v>       0.38461538      -0.23076923       0.46153846 </v>
   <v>       0.46153846      -0.23076923       0.46153846 </v>
   <v>      -0.46153846      -0.23076923       0.46153846 </v>
   <v>      -0.38461538      -0.23076923       0.46153846 </v>
   <v>      -0.30769231      -0.23076923       0.46153846 </v>
   <v>      -0.23076923      -0.23076923       0.46153846 </v>
   <v>      -0.15384615      -0.23076923       0.46153846 </v>
   <v>      -0.07692308      -0.23076923       0.46153846 </v>
   <v>       0.00000000      -0.15384615       0.46153846 </v>
   <v>       0.07692308      -0.15384615       0.46153846 </v>
   <v>       0.15384615      -0.15384615       0.46153846 </v>
   <v>       0.23076923      -0.15384615       0.46153846 </v>
   <v>       0.30769231      -0.15384615       0.46153846 </v>
   <v>       0.38461538      -0.15384615       0.46153846 </v>
   <v>       0.46153846      -0.15384615       0.46153846 </v>
   <v>      -0.46153846      -0.15384615       0.46153846 </v>
   <v>      -0.38461538      -0.15384615       0.46153846 </v>
   <v>      -0.30769231      -0.15384615       0.46153846 </v>
   <v>      -0.23076923      -0.15384615       0.46153846 </v>
   <v>      -0.15384615      -0.15384615       0.46153846 </v>
   <v>      -0.07692308      -0.15384615       0.46153846 </v>
   <v>       0.00000000      -0.07692308       0.46153846 </v>
   <v>       0.07692308      -0.07692308       0.46153846 </v>
   <v>       0.15384615      -0.07692308       0.46153846 </v>
   <v>       0.23076923      -0.07692308       0.46153846 </v>
   <v>       0.30769231      -0.07692308       0.46153846 </v>
   <v>       0.38461538      -0.07692308       0.46153846 </v>
   <v>       0.46153846      -0.07692308       0.46153846 </v>
   <v>      -0.46153846      -0.07692308       0.46153846 </v>
   <v>      -0.38461538      -0.07692308       0.46153846 </v>
   <v>      -0.30769231      -0.07692308       0.46153846 </v>
   <v>      -0.23076923      -0.07692308       0.46153846 </v>
   <v>      -0.15384615      -0.07692308       0.46153846 </v>
   <v>      -0.07692308      -0.07692308       0.46153846 </v>
  </varray>
  <varray name="weights" >
   <v>       0.00045517 </v>
   <v>       0.00091033 </v>
   <v>       0.00091033 </v>
   <v>       0.00091033 </v>
   <v>       0.00091033 </v>
   <v>       0.00091033 </v>
   <v>       0.00091033 </v>
   <v>       0.00091033 </v>
   <v>       0.00091033 </v>
   <v>       0.00091033 </v>
   <v>       0.00091033 </v>
   <v>       0.00091033 </v>
   <v>       0.00091033 </v>
   <v>       0.00091033 </v>
   <v>       0.00091033 </v>
   <v>       0.00091033 </v>
   <v>       0.00091033 </v>
   <v>       0.00091033 </v>
   <v>       0.00091033 </v>
   <v>       0.00091033 </v>
   <v>       0.00091033 </v>
   <v>       0.00091033 </v>
   <v>       0.00091033 </v>
   <v>       0.00091033 </v>
   <v>       0.00091033 </v>
   <v>       0.00091033 </v>
   <v>       0.00091033 </v>
   <v>       0.00091033 </v>
   <v>       0.00091033 </v>
   <v>       0.00091033 </v>
   <v>       0.00091033 </v>
   <v>       0.00091033 </v>
   <v>       0.00091033 </v>
   <v>       0.00091033 </v>
   <v>       0.00091033 </v>
   <v>       0.00091033 </v>
   <v>       0.00091033 </v>
   <v>       0.00091033 </v>
   <v>       0.00091033 </v>
   <v>       0.00091033 </v>
   <v>       0.00091033 </v>
   <v>       0.00091033 </v>
   <v>       0.00091033 </v>
   <v>       0.00091033 </v>
   <v>       0.00091033 </v>
   <v>       0.00091033 </v>
   <v>       0.00091033 </v>
   <v>       0.00091033 </v>
   <v>       0.00091033 </v>
   <v>       0.00091033 </v>
   <v>       0.00091033 </v>
   <v>       0.00091033 </v>
   <v>       0.00091033 </v>
   <v>       0.00091033 </v>
   <v>       0.00091033 </v>
   <v>       0.00091033 </v>
   <v>       0.00091033 </v>
   <v>       0.00091033 </v>
   <v>       0.00091033 </v>
   <v>       0.00091033 </v>
   <v>       0.00091033 </v>
   <v>       0.00091033 </v>
   <v>       0.00091033 </v>
   <v>       0.00091033 </v>
   <v>       0.00091033 </v>
   <v>       0.00091033 </v>
   <v>       0.00091033 </v>
   <v>       0.00091033 </v>
   <v>       0.00091033 </v>
   <v>       0.00091033 </v>
   <v>       0.00091033 </v>
   <v>       0.00091033 </v>
   <v>       0.00091033 </v>
   <v>       0.00091033 </v>
   <v>       0.00091033 </v>
   <v>       0.00091033 </v>
   <v>       0.00091033 </v>
   <v>       0.00091033 </v>
   <v>       0.00091033 </v>
   <v>       0.00091033 </v>
   <v>       0.00091033 </v>
   <v>       0.00091033 </v>
   <v>       0.00091033 </v>
   <v>       0.00091033 </v>
   <v>       0.00091033 </v>
   <v>       0.00091033 </v>
   <v>       0.00091033 </v>
   <v>       0.00091033 </v>
   <v>       0.00091033 </v>
   <v>       0.00091033 </v>
   <v>       0.00091033 </v>
   <v>       0.00091033 </v>
   <v>       0.00091033 </v>
   <v>       0.00091033 </v>
   <v>       0.00091033 </v>
   <v>       0.00091033 </v>
   <v>       0.00091033 </v>
   <v>       0.00091033 </v>
   <v>       0.00091033 </v>
   <v>       0.00091033 </v>
   <v>       0.00091033 </v>
   <v>       0.00091033 </v>
   <v>       0.00091033 </v>
   <v>       0.00091033 </v>
   <v>       0.00091033 </v>
   <v>       0.00091033 </v>
   <v>       0.00091033 </v>
   <v>       0.00091033 </v>
   <v>       0.00091033 </v>
   <v>       0.00091033 </v>
   <v>       0.00091033 </v>
   <v>       0.00091033 </v>
   <v>       0.00091033 </v>
   <v>       0.00091033 </v>
   <v>       0.00091033 </v>
   <v>       0.00091033 </v>
   <v>       0.00091033 </v>
   <v>       0.00091033 </v>
   <v>       0.00091033 </v>
   <v>       0.00091033 </v>
   <v>       0.00091033 </v>
   <v>       0.00091033 </v>
   <v>       0.00091033 </v>
   <v>       0.00091033 </v>
   <v>       0.00091033 </v>
   <v>       0.00091033 </v>
   <v>       0.00091033 </v>
   <v>       0.00091033 </v>
   <v>       0.00091033 </v>
   <v>       0.00091033 </v>
   <v>       0.00091033 </v>
   <v>       0.00091033 </v>
   <v>       0.00091033 </v>
   <v>       0.00091033 </v>
   <v>       0.00091033 </v>
   <v>       0.00091033 </v>
   <v>       0.00091033 </v>
   <v>       0.00091033 </v>
   <v>       0.00091033 </v>
   <v>       0.00091033 </v>
   <v>       0.00091033 </v>
   <v>       0.00091033 </v>
   <v>       0.00091033 </v>
   <v>       0.00091033 </v>
   <v>       0.00091033 </v>
   <v>       0.00091033 </v>
   <v>       0.00091033 </v>
   <v>       0.00091033 </v>
   <v>       0.00091033 </v>
   <v>       0.00091033 </v>
   <v>       0.00091033 </v>
   <v>       0.00091033 </v>
   <v>       0.00091033 </v>
   <v>       0.00091033 </v>
   <v>       0.00091033 </v>
   <v>       0.00091033 </v>
   <v>       0.00091033 </v>
   <v>       0.00091033 </v>
   <v>       0.00091033 </v>
   <v>       0.00091033 </v>
   <v>       0.00091033 </v>
   <v>       0.00091033 </v>
   <v>       0.00091033 </v>
   <v>       0.00091033 </v>
   <v>       0.00091033 </v>
   <v>       0.00091033 </v>
   <v>       0.00091033 </v>
   <v>       0.00091033 </v>
   <v>       0.00091033 </v>
   <v>       0.00091033 </v>
   <v>       0.00091033 </v>
   <v>       0.00091033 </v>
   <v>       0.00091033 </v>
   <v>       0.00091033 </v>
   <v>       0.00091033 </v>
   <v>       0.00091033 </v>
   <v>       0.00091033 </v>
   <v>       0.00091033 </v>
   <v>       0.00091033 </v>
   <v>       0.00091033 </v>
   <v>       0.00091033 </v>
   <v>       0.00091033 </v>
   <v>       0.00091033 </v>
   <v>       0.00091033 </v>
   <v>       0.00091033 </v>
   <v>       0.00091033 </v>
   <v>       0.00091033 </v>
   <v>       0.00091033 </v>
   <v>       0.00091033 </v>
   <v>       0.00091033 </v>
   <v>       0.00091033 </v>
   <v>       0.00091033 </v>
   <v>       0.00091033 </v>
   <v>       0.00091033 </v>
   <v>       0.00091033 </v>
   <v>       0.00091033 </v>
   <v>       0.00091033 </v>
   <v>       0.00091033 </v>
   <v>       0.00091033 </v>
   <v>       0.00091033 </v>
   <v>       0.00091033 </v>
   <v>       0.00091033 </v>
   <v>       0.00091033 </v>
   <v>       0.00091033 </v>
   <v>       0.00091033 </v>
   <v>       0.00091033 </v>
   <v>       0.00091033 </v>
   <v>       0.00091033 </v>
   <v>       0.00091033 </v>
   <v>       0.00091033 </v>
   <v>       0.00091033 </v>
   <v>       0.00091033 </v>
   <v>       0.00091033 </v>
   <v>       0.00091033 </v>
   <v>       0.00091033 </v>
   <v>       0.00091033 </v>
   <v>       0.00091033 </v>
   <v>       0.00091033 </v>
   <v>       0.00091033 </v>
   <v>       0.00091033 </v>
   <v>       0.00091033 </v>
   <v>       0.00091033 </v>
   <v>       0.00091033 </v>
   <v>       0.00091033 </v>
   <v>       0.00091033 </v>
   <v>       0.00091033 </v>
   <v>       0.00091033 </v>
   <v>       0.00091033 </v>
   <v>       0.00091033 </v>
   <v>       0.00091033 </v>
   <v>       0.00091033 </v>
   <v>       0.00091033 </v>
   <v>       0.00091033 </v>
   <v>       0.00091033 </v>
   <v>       0.00091033 </v>
   <v>       0.00091033 </v>
   <v>       0.00091033 </v>
   <v>       0.00091033 </v>
   <v>       0.00091033 </v>
   <v>       0.00091033 </v>
   <v>       0.00091033 </v>
   <v>       0.00091033 </v>
   <v>       0.00091033 </v>
   <v>       0.00091033 </v>
   <v>       0.00091033 </v>
   <v>       0.00091033 </v>
   <v>       0.00091033 </v>
   <v>       0.00091033 </v>
   <v>       0.00091033 </v>
   <v>       0.00091033 </v>
   <v>       0.00091033 </v>
   <v>       0.00091033 </v>
   <v>       0.00091033 </v>
   <v>       0.00091033 </v>
   <v>       0.00091033 </v>
   <v>       0.00091033 </v>
   <v>       0.00091033 </v>
   <v>       0.00091033 </v>
   <v>       0.00091033 </v>
   <v>       0.00091033 </v>
   <v>       0.00091033 </v>
   <v>       0.00091033 </v>
[...]
    <i name="BMIX">      1.00000000</i>
    <i name="AMIN">      0.10000000</i>
    <i name="AMIX_MAG">      1.60000000</i>
    <i name="BMIX_MAG">      1.00000000</i>
    <separator name="electronic mixer details" >
     <i type="int" name="IMIX">     4</i>
     <i type="logical" name="MIXFIRST"> F  </i>
     <i type="int" name="MAXMIX">   -45</i>
     <i name="WC">    100.00000000</i>
     <i type="int" name="INIMIX">     1</i>
     <i type="int" name="MIXPRE">     1</i>
     <i type="int" name="MREMOVE">     5</i>
    </separator>
   </separator>
   <separator name="electronic dipolcorrection" >
    <i type="logical" name="LDIPOL"> F  </i>
    <i type="logical" name="LMONO"> F  </i>
    <i type="int" name="IDIPOL">     0</i>
    <i name="EPSILON">      1.00000000</i>
    <v name="DIPOL">   -100.00000000   -100.00000000   -100.00000000</v>
    <i name="EFIELD">      0.00000000</i>
   </separator>
  </separator>
  <separator name="grids" >
   <i type="int" name="NGX">    24</i>
   <i type="int" name="NGY">    24</i>
   <i type="int" name="NGZ">    24</i>
   <i type="int" name="NGXF">    48</i>
   <i type="int" name="NGYF">    48</i>
   <i type="int" name="NGZF">    48</i>
   <i type="logical" name="ADDGRID"> F  </i>
  </separator>
  <separator name="ionic" >
   <i type="int" name="NSW">   199</i>
   <i type="int" name="IBRION">     2</i>
   <i type="int" name="MDALGO">     0</i>
   <i type="int" name="ISIF">     3</i>
   <i name="PSTRESS">      0.00000000</i>
   <i name="EDIFFG">     -0.03000000</i>
   <i type="int" name="NFREE">     1</i>
   <i name="POTIM">      0.50000000</i>
   <i name="SMASS">     -3.00000000</i>
   <i name="SCALEE">      1.00000000</i>
  </separator>
  <separator name="ionic md" >
   <i name="TEBEG">      0.00010000</i>
   <i name="TEEND">      0.00010000</i>
   <i type="int" name="NBLOCK">     1</i>
   <i type="int" name="KBLOCK">   199</i>
   <i type="int" name="NPACO">   256</i>
   <i name="APACO">     16.00000000</i>
  </separator>
  <separator name="symmetry" >
   <i type="int" name="ISYM">     0</i>
   <i name="SYMPREC">      0.00001000</i>
  </separator>
  <separator name="dos" >
   <i type="int" name="LORBIT">    11</i>
   <v name="RWIGS">     -1.00000000     -1.00000000</v>
   <i type="int" name="NEDOS">   301</i>
   <i name="EMIN">     10.00000000</i>
   <i name="EMAX">    -10.00000000</i>
   <i name="EFERMI">      0.00000000</i>
  </separator>
  <separator name="writing" >
   <i type="int" name="NWRITE">     2</i>
   <i type="logical" name="LWAVE"> T  </i>
   <i type="logical" name="LDOWNSAMPLE"> F  </i>
   <i type="logical" name="LCHARG"> T  </i>
   <i type="logical" name="LPARD"> F  </i>
   <i type="logical" name="LVTOT"> T  </i>
   <i type="logical" name="LVHAR"> F  </i>
   <i type="logical" name="LELF"> T  </i>
   <i type="logical" name="LOPTICS"> F  </i>
   <v name="STM">      0.00000000      0.00000000      0.00000000      0.00000000      0.00000000      0.00000000      0.00000000</v>
  </separator>
  <separator name="performance" >
   <i type="int" name="NPAR">     4</i>
   <i type="int" name="NSIM">     4</i>
   <i type="int" name="NBLK">    -1</i>
   <i type="logical" name="LPLANE"> T  </i>
   <i type="logical" name="LSCALAPACK"> T  </i>
   <i type="logical" name="LSCAAWARE"> F  </i>
   <i type="logical" name="LSCALU"> F  </i>
   <i type="logical" name="LASYNC"> F  </i>
   <i type="logical" name="LORBITALREAL"> F  </i>
  </separator>
  <separator name="miscellaneous" >
   <i type="int" name="IDIOT">     3</i>
   <i type="int" name="ISPECIAL">     0</i>
   <i type="logical" name="LMUSIC"> F  </i>
   <v name="POMASS">      7.01000000     18.99800000</v>
   <v name="DARWINR">      0.00000000      0.00000000</v>
   <v name="DARWINV">      1.00000000      1.00000000</v>
   <i type="logical" name="LCORR"> T  </i>
  </separator>
  <i type="logical" name="GGA_COMPAT"> T  </i>
  <i type="logical" name="LBERRY"> F  </i>
  <i type="int" name="ICORELEVEL">     0</i>
  <i type="logical" name="LDAU"> F  </i>
  <i type="int" name="I_CONSTRAINED_M">     0</i>
  <separator name="electronic exchange-correlation" >
   <i type="string" name="GGA">PE</i>
   <i type="int" name="VOSKOWN">     0</i>
   <i type="logical" name="LHFCALC"> F  </i>
   <i type="string" name="PRECFOCK"></i>
   <i type="logical" name="LSYMGRAD"> F  </i>
   <i type="logical" name="LHFONE"> F  </i>
   <i type="logical" name="LRHFCALC"> F  </i>
   <i type="logical" name="LTHOMAS"> F  </i>
   <i type="logical" name="LMODELHF"> F  </i>
   <i name="ENCUT4O">     -1.00000000</i>
   <i type="int" name="EXXOEP">     0</i>
   <i type="int" name="FOURORBIT">     0</i>
   <i name="AEXX">      0.00000000</i>
   <i name="HFALPHA">      0.00000000</i>
   <i name="MCALPHA">      0.00000000</i>
   <i name="ALDAX">      1.00000000</i>
   <i name="AGGAX">      1.00000000</i>
   <i name="ALDAC">      1.00000000</i>
   <i name="AGGAC">      1.00000000</i>
   <i type="int" name="NKREDX">     1</i>
   <i type="int" name="NKREDY">     1</i>
   <i type="int" name="NKREDZ">     1</i>
   <i type="logical" name="SHIFTRED"> F  </i>
   <i type="logical" name="ODDONLY"> F  </i>
   <i type="logical" name="EVENONLY"> F  </i>
   <i type="int" name="LMAXFOCK">     0</i>
   <i type="int" name="NMAXFOCKAE">     0</i>
   <i type="logical" name="LFOCKAEDFT"> F  </i>
   <i name="HFSCREEN">      0.00000000</i>
   <i name="HFSCREENC">      0.00000000</i>
   <i type="int" name="NBANDSGWLOW">     0</i>
  </separator>
  <separator name="vdW DFT" >
   <i type="logical" name="LUSE_VDW"> F  </i>
   <i name="Zab_VDW">     -0.84910000</i>
   <i name="PARAM1">      0.12340000</i>
   <i name="PARAM2">      1.00000000</i>
   <i name="PARAM3">      0.00000000</i>
  </separator>
  <separator name="model GW" >
   <i type="int" name="MODEL_GW">     0</i>
   <i name="MODEL_EPS0">      5.01048016</i>
   <i name="MODEL_ALPHA">      1.00000000</i>
  </separator>
  <separator name="linear response parameters" >
   <i type="logical" name="LEPSILON"> F  </i>
   <i type="logical" name="LRPA"> F  </i>
   <i type="logical" name="LNABLA"> F  </i>
   <i type="logical" name="LVEL"> F  </i>
   <i type="int" name="KINTER">     0</i>
   <i name="CSHIFT">      0.10000000</i>
   <i name="OMEGAMAX">     -1.00000000</i>
   <i name="DEG_THRESHOLD">      0.00200000</i>
   <i name="RTIME">     -0.10000000</i>
   <i name="WPLASMAI">      0.00000000</i>
   <v name="DFIELD">      0.00000000      0.00000000      0.00000000</v>
   <v name="WPLASMA">      0.00000000      0.00000000      0.00000000      0.00000000      0.00000000      0.00000000      0.00000000      0.00000000      0.00000000</v>
  </separator>
  <separator name="orbital magnetization" >
   <i type="logical" name="NUCIND"> F  </i>
   <v name="MAGPOS">      0.00000000      0.00000000      0.00000000</v>
   <i type="logical" name="LNICSALL"> T  </i>
   <i type="logical" name="ORBITALMAG"> F  </i>
   <i type="logical" name="LMAGBLOCH"> F  </i>
   <i type="logical" name="LCHIMAG"> F  </i>
   <i type="logical" name="LGAUGE"> T  </i>
   <i type="int" name="MAGATOM">     0</i>
   <v name="MAGDIPOL">      0.00000000      0.00000000      0.00000000</v>
   <v name="AVECCONST">      0.00000000      0.00000000      0.00000000</v>
  </separator>
  <separator name="response functions" >
   <i type="logical" name="LADDER"> F  </i>
   <i type="logical" name="LRPAFORCE"> F  </i>
   <i type="logical" name="LFXC"> F  </i>
   <i type="logical" name="LHARTREE"> T  </i>
   <i type="int" name="IBSE">     0</i>
   <v type="int" name="KPOINT">    -1     0     0     0</v>
   <i type="logical" name="LTCTE"> F  </i>
   <i type="logical" name="LTETE"> F  </i>
   <i type="logical" name="LTRIPLET"> F  </i>
   <i type="logical" name="LFXCEPS"> F  </i>
   <i type="logical" name="LFXHEG"> F  </i>
   <i type="int" name="NATURALO">     2</i>
   <i type="logical" name="L2ORDER"> F  </i>
   <i type="logical" name="LMP2LT"> F  </i>
   <i type="logical" name="LUSEW"> F  </i>
   <i name="ENCUTGW">     -2.00000000</i>
   <i name="ENCUTGWSOFT">     -2.00000000</i>
   <i name="ENCUTLF">     -1.00000000</i>
   <i type="int" name="LMAXMP2">    -1</i>
   <i name="SCISSOR">      0.00000000</i>
   <i type="int" name="NOMEGA">     0</i>
   <i type="int" name="NOMEGAR">     0</i>
   <i type="int" name="NBANDSGW">    -1</i>
   <i type="int" name="NBANDSO">    -1</i>
   <i type="int" name="NBANDSV">    -1</i>
   <i type="int" name="NELM">   200</i>
   <i type="int" name="NELMHF">     1</i>
   <i type="int" name="DIM">     3</i>
   <i type="int" name="ANTIRES">     0</i>
   <i name="OMEGAMAX">    -30.00000000</i>
   <i name="OMEGAMIN">    -30.00000000</i>
   <i name="OMEGATL">   -200.00000000</i>
   <i type="int" name="OMEGAGRID">   140</i>
   <i name="CSHIFT">     -0.10000000</i>
   <i type="logical" name="SELFENERGY"> F  </i>
   <i type="logical" name="LSPECTRAL"> F  </i>
   <i type="logical" name="LSPECTRALGW"> F  </i>
   <i type="logical" name="LSINGLES"> F  </i>
   <i type="logical" name="LFERMIGW"> F  </i>
   <i type="logical" name="ODDONLYGW"> F  </i>
   <i type="logical" name="EVENONLYGW"> F  </i>
   <i type="int" name="NKREDLFX">     1</i>
   <i type="int" name="NKREDLFY">     1</i>
   <i type="int" name="NKREDLFZ">     1</i>
   <i type="int" name="MAXMEM">  2800</i>
   <i type="int" name="TELESCOPE">     0</i>
   <i type="int" name="TAUPAR">     1</i>
   <i type="int" name="OMEGAPAR">    -1</i>
   <i name="LAMBDA">      1.00000000</i>
  </separator>
  <separator name="External order field" >
   <i name="OFIELD_KAPPA">      0.00000000</i>
   <v name="OFIELD_K">      0.00000000      0.00000000      0.00000000</v>
   <i name="OFIELD_Q6_NEAR">      0.00000000</i>
   <i name="OFIELD_Q6_FAR">      0.00000000</i>
   <i name="OFIELD_A">      0.00000000</i>
  </separator>
 </parameters>
 <atominfo>
  <atoms>       2 </atoms>
  <types>       2 </types>
  <array name="atoms" >
   <dimension dim="1">ion</dimension>
   <field type="string">element</field>
   <field type="int">atomtype</field>
   <set>
    <rc><c>Li</c><c>   1</c></rc>
    <rc><c>F </c><c>   2</c></rc>
   </set>
  </array>
  <array name="atomtypes" >
   <dimension dim="1">type</dimension>
   <field type="int">atomspertype</field>
   <field type="string">element</field>
   <field>mass</field>
   <field>valence</field>
   <field type="string">pseudopotential</field>
   <set>
    <rc><c>   1</c><c>Li</c><c>      7.01000000</c><c>      3.00000000</c><c>  PAW_PBE Li_sv 10Sep2004               </c></rc>
    <rc><c>   1</c><c>F </c><c>     18.99800000</c><c>      7.00000000</c><c>  PAW_PBE F 08Apr2002                   </c></rc>
   </set>
  </array>
 </atominfo>
 <structure name="initialpos" >
  <crystal>
   <varray name="basis" >
    <v>       0.00000356       2.02881796       2.02881792 </v>
    <v>       2.02881796       0.00000357       2.02881792 </v>
    <v>       2.02881798       2.02881798       0.00000354 </v>
   </varray>
   <i name="volume">     16.70160054 </i>
   <varray name="rec_basis" >
    <v>      -0.24644957       0.24644914       0.24644914 </v>
    <v>       0.24644914      -0.24644957       0.24644914 </v>
    <v>       0.24644913       0.24644914      -0.24644957 </v>
   </varray>
  </crystal>
  <varray name="positions" >
   <v>       0.00000001       0.00000001       0.99999999 </v>
   <v>       0.49999999       0.49999999       0.50000001 </v>
  </varray>
 </structure>
 <calculation>
  <scstep>
   <time name="total">   14.51   20.57</time>
   <energy>
    <i name="alphaZ">     19.61697810 </i>
    <i name="ewald">   -553.06648737 </i>
    <i name="hartreedc">   -229.05351616 </i>
    <i name="XCdc">     59.92331303 </i>
    <i name="pawpsdc">    704.23483742 </i>
    <i name="pawaedc">   -724.88532543 </i>
    <i name="eentropy">     -0.00000000 </i>
    <i name="bandstr">   -150.99675207 </i>
    <i name="atom">    862.38801837 </i>
    <i name="e_fr_energy">    -11.83893412 </i>
    <i name="e_wo_entrp">    -11.83893412 </i>
    <i name="e_0_energy">    -11.83893412 </i>
   </energy>
  </scstep>
  <scstep>
   <time name="total">   17.42   21.10</time>
   <energy>
    <i name="e_fr_energy">    -11.88332760 </i>
    <i name="e_wo_entrp">    -11.88332760 </i>
    <i name="e_0_energy">    -11.88332760 </i>
   </energy>
  </scstep>
  <scstep>
   <time name="total">   16.28   20.17</time>
   <energy>
    <i name="e_fr_energy">    -11.89069025 </i>
    <i name="e_wo_entrp">    -11.89069025 </i>
    <i name="e_0_energy">    -11.89069025 </i>
   </energy>
  </scstep>
  <scstep>
   <time name="total">   14.07   19.87</time>
   <energy>
    <i name="e_fr_energy">    -11.89211288 </i>
    <i name="e_wo_entrp">    -11.89211288 </i>
    <i name="e_0_energy">    -11.89211288 </i>
   </energy>
  </scstep>
  <scstep>
   <time name="total">   15.62   20.30</time>
   <energy>
    <i name="e_fr_energy">    -11.89226980 </i>
    <i name="e_wo_entrp">    -11.89226980 </i>
    <i name="e_0_energy">    -11.89226980 </i>
   </energy>
  </scstep>
  <scstep>
   <time name="total">   15.15   16.61</time>
   <energy>
    <i name="e_fr_energy">    -11.89229909 </i>
    <i name="e_wo_entrp">    -11.89229909 </i>
    <i name="e_0_energy">    -11.89229909 </i>
   </energy>
  </scstep>
  <scstep>
   <time name="total">   14.44   14.68</time>
   <energy>
    <i name="e_fr_energy">    -11.89230707 </i>
    <i name="e_wo_entrp">    -11.89230707 </i>
    <i name="e_0_energy">    -11.89230707 </i>
   </energy>
  </scstep>
  <scstep>
   <time name="total">    9.83    9.83</time>
   <energy>
    <i name="e_fr_energy">    -11.89231029 </i>
    <i name="e_wo_entrp">    -11.89231029 </i>
    <i name="e_0_energy">    -11.89231029 </i>
   </energy>
  </scstep>
  <scstep>
   <time name="total">   10.05   10.05</time>
   <energy>
    <i name="e_fr_energy">    -11.89231145 </i>
    <i name="e_wo_entrp">    -11.89231145 </i>
    <i name="e_0_energy">    -11.89231145 </i>
   </energy>
  </scstep>
  <scstep>
   <time name="total">   12.24   12.24</time>
   <energy>
    <i name="alphaZ">     19.61697810 </i>
    <i name="ewald">   -553.06648737 </i>
    <i name="hartreedc">   -230.30561465 </i>
    <i name="XCdc">     60.03633343 </i>
    <i name="pawpsdc">    708.75427715 </i>
    <i name="pawaedc">   -729.47830038 </i>
    <i name="eentropy">     -0.00000000 </i>
    <i name="bandstr">   -149.83751653 </i>
    <i name="atom">    862.38801837 </i>
    <i name="e_fr_energy">    -11.89231190 </i>
    <i name="e_wo_entrp">    -11.89231190 </i>
    <i name="e_0_energy">    -11.89231190 </i>
   </energy>
  </scstep>
  <structure>
   <crystal>
    <varray name="basis" >
     <v>       0.00000356       2.02881796       2.02881792 </v>
     <v>       2.02881796       0.00000357       2.02881792 </v>
     <v>       2.02881798       2.02881798       0.00000354 </v>
    </varray>
    <i name="volume">     16.70160054 </i>
    <varray name="rec_basis" >
     <v>      -0.24644957       0.24644914       0.24644914 </v>
     <v>       0.24644914      -0.24644957       0.24644914 </v>
     <v>       0.24644913       0.24644914      -0.24644957 </v>
    </varray>
   </crystal>
   <varray name="positions" >
    <v>       0.00000001       0.00000001       0.99999999 </v>
    <v>       0.49999999       0.49999999       0.50000001 </v>
   </varray>
  </structure>
  <varray name="forces" >
   <v>      -0.00000025      -0.00000032       0.00000023 </v>
   <v>       0.00000025       0.00000032      -0.00000023 </v>
  </varray>
  <varray name="stress" >
   <v>     -43.15847394      -0.08857195      -0.08861634 </v>
   <v>      -0.08857179     -43.15847957      -0.08861549 </v>
   <v>      -0.08861646      -0.08861562     -43.15830850 </v>
  </varray>
  <energy>
   <i name="e_fr_energy">    -11.89231190 </i>
   <i name="e_wo_entrp">    -11.89231190 </i>
   <i name="e_0_energy">     -0.00000000 </i>
  </energy>
  <time name="totalsc">  158.94  184.93</time>
 </calculation>
 <calculation>
  <scstep>
   <time name="total">    9.69    9.72</time>
   <energy>
    <i name="alphaZ">     20.26975145 </i>
    <i name="ewald">   -559.13427526 </i>
    <i name="hartreedc">   -233.68423953 </i>
    <i name="XCdc">     60.68592027 </i>
    <i name="pawpsdc">    706.90329851 </i>
    <i name="pawaedc">   -728.04846639 </i>
    <i name="eentropy">     -0.00000000 </i>
    <i name="bandstr">   -141.16631052 </i>
    <i name="atom">    862.38801837 </i>
    <i name="e_fr_energy">    -11.78630311 </i>
    <i name="e_wo_entrp">    -11.78630311 </i>
    <i name="e_0_energy">    -11.78630311 </i>
   </energy>
  </scstep>
  <scstep>
   <time name="total">   10.36   10.36</time>
   <energy>
    <i name="e_fr_energy">    -11.89362950 </i>
    <i name="e_wo_entrp">    -11.89362950 </i>
    <i name="e_0_energy">    -11.89362950 </i>
   </energy>
  </scstep>
  <scstep>
   <time name="total">    8.87    8.87</time>
   <energy>
    <i name="e_fr_energy">    -11.90197453 </i>
    <i name="e_wo_entrp">    -11.90197453 </i>
    <i name="e_0_energy">    -11.90197453 </i>
   </energy>
  </scstep>
  <scstep>
   <time name="total">    9.87    9.87</time>
   <energy>
    <i name="e_fr_energy">    -11.90315199 </i>
    <i name="e_wo_entrp">    -11.90315199 </i>
    <i name="e_0_energy">    -11.90315199 </i>
   </energy>
  </scstep>
  <scstep>
   <time name="total">   11.37   12.79</time>
   <energy>
    <i name="e_fr_energy">    -11.90343687 </i>
    <i name="e_wo_entrp">    -11.90343687 </i>
    <i name="e_0_energy">    -11.90343687 </i>
   </energy>
  </scstep>
  <scstep>
   <time name="total">    9.60    9.60</time>
   <energy>
    <i name="e_fr_energy">    -11.90346872 </i>
    <i name="e_wo_entrp">    -11.90346872 </i>
    <i name="e_0_energy">    -11.90346872 </i>
   </energy>
  </scstep>
  <scstep>
   <time name="total">    9.91    9.92</time>
   <energy>
    <i name="e_fr_energy">    -11.90347539 </i>
    <i name="e_wo_entrp">    -11.90347539 </i>
    <i name="e_0_energy">    -11.90347539 </i>
   </energy>
  </scstep>
  <scstep>
   <time name="total">   11.57   11.58</time>
   <energy>
    <i name="alphaZ">     20.26975145 </i>
    <i name="ewald">   -559.13427526 </i>
    <i name="hartreedc">   -226.65372654 </i>
    <i name="XCdc">     60.11139562 </i>
    <i name="pawpsdc">    711.20524418 </i>
    <i name="pawaedc">   -731.91540719 </i>
    <i name="eentropy">     -0.00000000 </i>
    <i name="bandstr">   -148.17447683 </i>
    <i name="atom">    862.38801837 </i>
    <i name="e_fr_energy">    -11.90347622 </i>
    <i name="e_wo_entrp">    -11.90347622 </i>
    <i name="e_0_energy">    -11.90347622 </i>
   </energy>
  </scstep>
  <structure>
   <crystal>
    <varray name="basis" >
     <v>      -0.00008687       2.00675577       2.00675582 </v>
     <v>       2.00675577      -0.00008686       2.00675581 </v>
     <v>       2.00675581       2.00675581      -0.00008691 </v>
    </varray>
    <i name="volume">     16.16373703 </i>
    <varray name="rec_basis" >
     <v>      -0.24914219       0.24915298       0.24915297 </v>
     <v>       0.24915298      -0.24914219       0.24915297 </v>
     <v>       0.24915297       0.24915297      -0.24914218 </v>
    </varray>
   </crystal>
   <varray name="positions" >
    <v>       0.00000001       0.00000002       0.99999998 </v>
    <v>       0.49999999       0.49999998       0.50000002 </v>
   </varray>
  </structure>
  <varray name="forces" >
   <v>       0.00000003       0.00000007      -0.00000011 </v>
   <v>      -0.00000003      -0.00000007       0.00000011 </v>
  </varray>
  <varray name="stress" >
   <v>     -21.92028224       0.04861214       0.04864151 </v>
   <v>       0.04861197     -21.92027872       0.04863656 </v>
   <v>       0.04864126       0.04863667     -21.92030318 </v>
  </varray>
  <energy>
   <i name="e_fr_energy">    -11.90347622 </i>
   <i name="e_wo_entrp">    -11.90347622 </i>
   <i name="e_0_energy">     -0.00000000 </i>
  </energy>
  <time name="totalsc">   98.67  100.21</time>
 </calculation>
 <calculation>
  <scstep>
