unknown system                          
           1
     0.000004    2.028818    2.028818
     2.028818    0.000004    2.028818
     2.028818    2.028818    0.000004
   Li   F 
   1   1
Direct configuration=     1
   0.00000001  0.00000001  0.99999999
   0.49999999  0.49999999  0.50000001
unknown system                          
           1
    -0.000087    2.006756    2.006756
     2.006756   -0.000087    2.006756
     2.006756    2.006756   -0.000087
   Li   F 
   1   1
Direct configuration=     2
   0.00000001  0.00000002  0.99999998
   0.49999999  0.49999998  0.50000002
unknown system                          
           1
    -0.000152    1.990777    1.990777
     1.990777   -0.000152    1.990777
     1.990777    1.990777   -0.000152
   Li   F 
   1   1
Direct configuration=     3
   0.00000001  0.00000002  0.99999998
   0.49999999  0.49999998  0.50000002
