       N       E                     dE             d eps       ncg     rms          rms(c)
DAV:   1    -0.638610075987E+02   -0.63861E+02   -0.14776E+03 45360   0.392E+02    0.283E+01
RMM:   2    -0.100135602536E+03   -0.36275E+02   -0.38548E+02 37315   0.934E+01    0.229E+01
RMM:   3    -0.919987332895E+02    0.81369E+01   -0.22915E+01 42341   0.250E+01    0.136E+01
RMM:   4    -0.925296891137E+02   -0.53096E+00   -0.63151E+00 38554   0.115E+01    0.106E+01
RMM:   5    -0.923695438829E+02    0.16015E+00   -0.27064E+00 40565   0.742E+00    0.108E+01
RMM:   6    -0.919602011371E+02    0.40934E+00   -0.12654E+00 39272   0.483E+00    0.289E+00
RMM:   7    -0.919310580321E+02    0.29143E-01   -0.14955E-01 44178   0.155E+00    0.131E+00
RMM:   8    -0.919309758056E+02    0.82226E-04   -0.29610E-02 39575   0.665E-01    0.924E-01
RMM:   9    -0.919290335112E+02    0.19423E-02   -0.12821E-02 39102   0.474E-01    0.560E-01
RMM:  10    -0.919285087154E+02    0.52480E-03   -0.72795E-03 41386   0.330E-01    0.253E-01
