       N       E                     dE             d eps       ncg     rms          rms(c)
DAV:   1    -0.638610075987E+02   -0.63861E+02   -0.14776E+03 45360   0.392E+02    0.283E+01
RMM:   2    -0.100135602536E+03   -0.36275E+02   -0.38548E+02 37315   0.934E+01    0.229E+01
RMM:   3    -0.919987332895E+02    0.81369E+01   -0.22915E+01 42341   0.250E+01    0.136E+01
RMM:   4    -0.925296891137E+02   -0.53096E+00   -0.63151E+00 38554   0.115E+01    0.106E+01
RMM:   5    -0.923695438829E+02    0.16015E+00   -0.27064E+00 40565   0.742E+00    0.108E+01
RMM:   6    -0.919602011371E+02    0.40934E+00   -0.12654E+00 39272   0.483E+00    0.289E+00
RMM:   7    -0.919310580321E+02    0.29143E-01   -0.14955E-01 44178   0.155E+00    0.131E+00
RMM:   8    -0.919309758056E+02    0.82226E-04   -0.29610E-02 39575   0.665E-01    0.924E-01
RMM:   9    -0.919290335112E+02    0.19423E-02   -0.12821E-02 39102   0.474E-01    0.560E-01
RMM:  10    -0.919285087154E+02    0.52480E-03   -0.72795E-03 41386   0.330E-01    0.253E-01
RMM:  11    -0.919284972136E+02    0.11502E-04   -0.20111E-03 40725   0.187E-01    0.171E-01
RMM:  12    -0.919284534409E+02    0.43773E-04   -0.69714E-04 39410   0.111E-01    0.717E-02
RMM:  13    -0.919284384809E+02    0.14960E-04   -0.13243E-04 39494   0.419E-02    0.447E-02
RMM:  14    -0.919284283391E+02    0.10142E-04   -0.78180E-05 37543   0.377E-02    0.114E-02
RMM:  15    -0.919284279743E+02    0.36481E-06   -0.10572E-05 36207   0.109E-02    0.599E-03
RMM:  16    -0.919284277682E+02    0.20612E-06   -0.15139E-06 20781   0.618E-03
   1 F= -.91928428E+02 E0= -.91928428E+02  d E =-.919284E+02  mag=     0.0000
       N       E                     dE             d eps       ncg     rms          rms(c)
DAV:   1    -0.981238903007E+02   -0.61955E+01   -0.12124E+03 36056   0.410E+02    0.579E+01
RMM:   2    -0.184364970184E+03   -0.86241E+02   -0.84812E+02 43958   0.133E+02    0.587E+01
RMM:   3    -0.106043560101E+03    0.78321E+02   -0.92888E+01 39933   0.480E+01    0.346E+01
RMM:   4    -0.936938416911E+02    0.12350E+02   -0.39665E+01 43000   0.248E+01    0.176E+01
RMM:   5    -0.921955119660E+02    0.14983E+01   -0.11292E+01 47026   0.118E+01    0.107E+01
RMM:   6    -0.921761181817E+02    0.19394E-01   -0.41195E+00 40280   0.866E+00    0.912E+00
RMM:   7    -0.919819796008E+02    0.19414E+00   -0.15065E+00 39605   0.552E+00    0.502E+00
RMM:   8    -0.917315645120E+02    0.25042E+00   -0.57775E-01 43432   0.272E+00    0.160E+00
RMM:   9    -0.917268470021E+02    0.47175E-02   -0.13815E-01 45479   0.135E+00    0.782E-01
RMM:  10    -0.917254537020E+02    0.13933E-02   -0.23962E-02 42971   0.613E-01    0.439E-01
RMM:  11    -0.917256028497E+02   -0.14915E-03   -0.47399E-03 39564   0.295E-01    0.277E-01
RMM:  12    -0.917253907754E+02    0.21207E-03   -0.36075E-03 41382   0.237E-01    0.155E-01
RMM:  13    -0.917254562581E+02   -0.65483E-04   -0.11325E-03 45015   0.129E-01    0.138E-01
RMM:  14    -0.917253097696E+02    0.14649E-03   -0.36330E-04 38303   0.749E-02    0.439E-02
RMM:  15    -0.917253071945E+02    0.25751E-05   -0.14761E-04 45155   0.395E-02    0.242E-02
RMM:  16    -0.917253012826E+02    0.59120E-05   -0.12004E-05 31782   0.160E-02    0.111E-02
RMM:  17    -0.917253010352E+02    0.24733E-06   -0.41386E-06 26295   0.815E-03
   2 F= -.91725301E+02 E0= -.91725301E+02  d E =0.203127E+00  mag=     0.0000
       N       E                     dE             d eps       ncg     rms          rms(c)
DAV:   1    -0.935762660143E+02   -0.18510E+01   -0.33273E+02 39184   0.220E+02    0.230E+01
RMM:   2    -0.950425099810E+02   -0.14662E+01   -0.70547E+01 42573   0.491E+01    0.162E+01
RMM:   3    -0.940529940529E+02    0.98952E+00   -0.16857E+01 38509   0.194E+01    0.101E+01
RMM:   4    -0.930531083488E+02    0.99989E+00   -0.24039E+00 34580   0.805E+00    0.384E+00
RMM:   5    -0.929804649741E+02    0.72643E-01   -0.38836E-01 40005   0.297E+00    0.165E+00
RMM:   6    -0.929654594312E+02    0.15006E-01   -0.65762E-02 36135   0.119E+00    0.969E-01
RMM:   7    -0.929618788638E+02    0.35806E-02   -0.23114E-02 40665   0.668E-01    0.364E-01
RMM:   8    -0.929618078907E+02    0.70973E-04   -0.46593E-03 42700   0.297E-01    0.254E-01
RMM:   9    -0.929615088583E+02    0.29903E-03   -0.14474E-03 38371   0.169E-01    0.120E-01
RMM:  10    -0.929614904054E+02    0.18453E-04   -0.37244E-04 44664   0.761E-02    0.551E-02
RMM:  11    -0.929614862920E+02    0.41134E-05   -0.11065E-04 39205   0.456E-02    0.343E-02
RMM:  12    -0.929614805199E+02    0.57721E-05   -0.28933E-05 40962   0.236E-02    0.150E-02
RMM:  13    -0.929614798194E+02    0.70051E-06   -0.11853E-05 36767   0.131E-02    0.800E-03
RMM:  14    -0.929614789011E+02    0.91828E-06   -0.11996E-06 20275   0.568E-03
   3 F= -.92961479E+02 E0= -.92961479E+02  d E =-.103305E+01  mag=     0.0000
       N       E                     dE             d eps       ncg     rms          rms(c)
DAV:   1    -0.929632563996E+02   -0.17766E-02   -0.23513E-01 40088   0.592E+00    0.632E-01
RMM:   2    -0.929657927439E+02   -0.25363E-02   -0.58324E-02 42654   0.143E+00    0.532E-01
RMM:   3    -0.929633658007E+02    0.24269E-02   -0.14518E-02 39251   0.567E-01    0.253E-01
RMM:   4    -0.929628643930E+02    0.50141E-03   -0.16281E-03 35797   0.190E-01    0.130E-01
RMM:   5    -0.929627686199E+02    0.95773E-04   -0.31819E-04 34938   0.970E-02    0.430E-02
RMM:   6    -0.929627565875E+02    0.12032E-04   -0.54884E-05 36708   0.350E-02    0.259E-02
RMM:   7    -0.929627575116E+02   -0.92409E-06   -0.29444E-05 37605   0.232E-02    0.223E-02
RMM:   8    -0.929627548232E+02    0.26884E-05   -0.82386E-06 32553   0.134E-02    0.578E-03
RMM:   9    -0.929627543670E+02    0.45620E-06   -0.99531E-07 20000   0.508E-03
   4 F= -.92962754E+02 E0= -.92962754E+02  d E =-.103433E+01  mag=    -0.0000
       N       E                     dE             d eps       ncg     rms          rms(c)
DAV:   1    -0.923013603111E+02    0.66139E+00   -0.10653E+02 44408   0.129E+02    0.106E+01
RMM:   2    -0.936070949743E+02   -0.13057E+01   -0.21611E+01 42600   0.286E+01    0.613E+00
RMM:   3    -0.935519573726E+02    0.55138E-01   -0.22179E+00 40539   0.768E+00    0.413E+00
RMM:   4    -0.934126224583E+02    0.13933E+00   -0.58909E-01 34650   0.394E+00    0.259E+00
RMM:   5    -0.933656649214E+02    0.46958E-01   -0.10040E-01 42874   0.156E+00    0.105E+00
RMM:   6    -0.933623597334E+02    0.33052E-02   -0.18389E-02 41463   0.578E-01    0.508E-01
RMM:   7    -0.933617637436E+02    0.59599E-03   -0.58036E-03 37591   0.351E-01    0.234E-01
RMM:   8    -0.933616745597E+02    0.89184E-04   -0.17341E-03 40677   0.197E-01    0.182E-01
RMM:   9    -0.933615468474E+02    0.12771E-03   -0.60894E-04 38709   0.112E-01    0.716E-02
RMM:  10    -0.933615295547E+02    0.17293E-04   -0.83533E-05 40114   0.431E-02    0.285E-02
RMM:  11    -0.933615321904E+02   -0.26357E-05   -0.14995E-05 36351   0.175E-02    0.129E-02
RMM:  12    -0.933615322849E+02   -0.94464E-07   -0.60936E-06 30430   0.113E-02
   5 F= -.93361532E+02 E0= -.93361532E+02  d E =-.398778E+00  mag=     0.0000
       N       E                     dE             d eps       ncg     rms          rms(c)
DAV:   1    -0.933190987015E+02    0.42433E-01   -0.73636E+00 44332   0.341E+01    0.283E+00
RMM:   2    -0.934004710231E+02   -0.81372E-01   -0.14437E+00 42688   0.763E+00    0.163E+00
RMM:   3    -0.933961284656E+02    0.43426E-02   -0.17023E-01 41574   0.208E+00    0.115E+00
RMM:   4    -0.933846433669E+02    0.11485E-01   -0.44354E-02 34839   0.107E+00    0.696E-01
RMM:   5    -0.933813049166E+02    0.33385E-02   -0.58902E-03 42779   0.381E-01    0.272E-01
RMM:   6    -0.933810697731E+02    0.23514E-03   -0.13783E-03 39657   0.165E-01    0.140E-01
RMM:   7    -0.933810260118E+02    0.43761E-04   -0.58501E-04 39730   0.110E-01    0.862E-02
RMM:   8    -0.933810011554E+02    0.24856E-04   -0.18087E-04 39060   0.638E-02    0.524E-02
RMM:   9    -0.933809885431E+02    0.12612E-04   -0.47338E-05 40288   0.313E-02    0.199E-02
RMM:  10    -0.933809877685E+02    0.77464E-06   -0.55369E-06 29428   0.111E-02
   6 F= -.93380988E+02 E0= -.93380988E+02  d E =-.418233E+00  mag=     0.0000
       N       E                     dE             d eps       ncg     rms          rms(c)
DAV:   1    -0.933154657055E+02    0.65523E-01   -0.73779E+01 34080   0.557E+01    0.361E+00
RMM:   2    -0.935916033456E+02   -0.27614E+00   -0.36432E+00 42343   0.111E+01    0.185E+00
RMM:   3    -0.935707252024E+02    0.20878E-01   -0.33518E-01 41379   0.289E+00    0.152E+00
RMM:   4    -0.935519326768E+02    0.18793E-01   -0.47080E-02 36632   0.110E+00    0.638E-01
RMM:   5    -0.935491347308E+02    0.27979E-02   -0.11325E-02 42903   0.442E-01    0.346E-01
RMM:   6    -0.935488440015E+02    0.29073E-03   -0.30518E-03 37670   0.251E-01    0.114E-01
RMM:   7    -0.935488171734E+02    0.26828E-04   -0.37801E-04 40992   0.975E-02    0.554E-02
RMM:   8    -0.935488227938E+02   -0.56204E-05   -0.10469E-04 41104   0.454E-02    0.408E-02
RMM:   9    -0.935488183745E+02    0.44192E-05   -0.43247E-05 37830   0.305E-02    0.218E-02
RMM:  10    -0.935488163057E+02    0.20688E-05   -0.67973E-06 34497   0.129E-02    0.598E-03
RMM:  11    -0.935488160210E+02    0.28469E-06   -0.11247E-06 20051   0.585E-03
   7 F= -.93548816E+02 E0= -.93548816E+02  d E =-.167828E+00  mag=    -0.0000
       N       E                     dE             d eps       ncg     rms          rms(c)
DAV:   1    -0.934935224282E+02    0.55294E-01   -0.27402E+01 34104   0.339E+01    0.227E+00
RMM:   2    -0.935967331052E+02   -0.10321E+00   -0.13300E+00 42648   0.678E+00    0.122E+00
RMM:   3    -0.935867591638E+02    0.99739E-02   -0.12852E-01 40453   0.177E+00    0.980E-01
RMM:   4    -0.935790764223E+02    0.76827E-02   -0.18235E-02 36286   0.691E-01    0.402E-01
RMM:   5    -0.935781098598E+02    0.96656E-03   -0.45771E-03 41663   0.288E-01    0.208E-01
RMM:   6    -0.935779738027E+02    0.13606E-03   -0.11193E-03 37494   0.155E-01    0.694E-02
RMM:   7    -0.935779672992E+02    0.65035E-05   -0.12517E-04 42979   0.545E-02    0.337E-02
RMM:   8    -0.935779716099E+02   -0.43107E-05   -0.35813E-05 39238   0.268E-02    0.272E-02
RMM:   9    -0.935779689320E+02    0.26780E-05   -0.16065E-05 34254   0.188E-02    0.126E-02
RMM:  10    -0.935779682058E+02    0.72620E-06   -0.19591E-06 21647   0.777E-03
   8 F= -.93577968E+02 E0= -.93577968E+02  d E =-.196980E+00  mag=     0.0000
       N       E                     dE             d eps       ncg     rms          rms(c)
DAV:   1    -0.932509686764E+02    0.32700E+00   -0.32401E+01 41856   0.687E+01    0.275E+00
RMM:   2    -0.936886975673E+02   -0.43773E+00   -0.44092E+00 43367   0.121E+01    0.143E+00
RMM:   3    -0.937064112035E+02   -0.17714E-01   -0.21070E-01 39512   0.217E+00    0.872E-01
RMM:   4    -0.937021445600E+02    0.42666E-02   -0.97369E-03 44946   0.464E-01    0.640E-01
RMM:   5    -0.936997720576E+02    0.23725E-02   -0.81465E-03 34939   0.475E-01    0.232E-01
RMM:   6    -0.936996719438E+02    0.10011E-03   -0.26354E-03 39442   0.248E-01    0.121E-01
RMM:   7    -0.936995749107E+02    0.97033E-04   -0.29082E-04 41327   0.884E-02    0.550E-02
RMM:   8    -0.936995649591E+02    0.99516E-05   -0.71856E-05 39798   0.401E-02    0.291E-02
RMM:   9    -0.936995668590E+02   -0.18999E-05   -0.35810E-05 37586   0.289E-02    0.262E-02
RMM:  10    -0.936995639528E+02    0.29062E-05   -0.11830E-05 34033   0.171E-02    0.843E-03
RMM:  11    -0.936995634331E+02    0.51971E-06   -0.12285E-06 20420   0.656E-03
   9 F= -.93699563E+02 E0= -.93699563E+02  d E =-.121595E+00  mag=    -0.0000
       N       E                     dE             d eps       ncg     rms          rms(c)
DAV:   1    -0.898902339699E+02    0.38093E+01   -0.29307E+02 41648   0.206E+02    0.921E+00
RMM:   2    -0.939637418375E+02   -0.40735E+01   -0.40926E+01 43067   0.368E+01    0.529E+00
RMM:   3    -0.940986118543E+02   -0.13487E+00   -0.21873E+00 41254   0.708E+00    0.296E+00
RMM:   4    -0.940593997975E+02    0.39212E-01   -0.94923E-02 46819   0.145E+00    0.232E+00
RMM:   5    -0.940325346673E+02    0.26865E-01   -0.60871E-02 34998   0.128E+00    0.901E-01
RMM:   6    -0.940319035641E+02    0.63110E-03   -0.34378E-02 39035   0.883E-01    0.465E-01
RMM:   7    -0.940305711266E+02    0.13324E-02   -0.64992E-03 39825   0.403E-01    0.188E-01
RMM:   8    -0.940304191813E+02    0.15195E-03   -0.63608E-04 42816   0.121E-01    0.119E-01
RMM:   9    -0.940304303189E+02   -0.11138E-04   -0.28789E-04 36345   0.914E-02    0.570E-02
RMM:  10    -0.940304214064E+02    0.89125E-05   -0.99037E-05 39549   0.487E-02    0.333E-02
RMM:  11    -0.940304152205E+02    0.61859E-05   -0.18457E-05 36338   0.217E-02    0.124E-02
RMM:  12    -0.940304148338E+02    0.38675E-06   -0.25809E-06 22668   0.798E-03
  10 F= -.94030415E+02 E0= -.94030415E+02  d E =-.452447E+00  mag=     0.0000
       N       E                     dE             d eps       ncg     rms          rms(c)
DAV:   1    -0.755892914641E+02    0.18441E+02   -0.11788E+03 39616   0.406E+02    0.238E+01
RMM:   2    -0.946280630299E+02   -0.19039E+02   -0.19119E+02 42584   0.780E+01    0.143E+01
RMM:   3    -0.946834862263E+02   -0.55423E-01   -0.10743E+01 45124   0.161E+01    0.780E+00
RMM:   4    -0.945383126332E+02    0.14517E+00   -0.51016E-01 44478   0.350E+00    0.622E+00
RMM:   5    -0.944308154196E+02    0.10750E+00   -0.21154E-01 34640   0.228E+00    0.352E+00
RMM:   6    -0.944097472536E+02    0.21068E-01   -0.32650E-01 38536   0.253E+00    0.168E+00
RMM:   7    -0.943919748797E+02    0.17772E-01   -0.66967E-02 39832   0.128E+00    0.522E-01
RMM:   8    -0.943908991412E+02    0.10757E-02   -0.65082E-03 45358   0.362E-01    0.369E-01
RMM:   9    -0.943910256789E+02   -0.12654E-03   -0.21400E-03 36371   0.235E-01    0.192E-01
RMM:  10    -0.943909129081E+02    0.11277E-03   -0.10434E-03 39837   0.151E-01    0.960E-02
RMM:  11    -0.943908652848E+02    0.47623E-04   -0.17801E-04 39259   0.649E-02    0.403E-02
RMM:  12    -0.943908637691E+02    0.15156E-05   -0.21803E-05 41299   0.190E-02    0.205E-02
RMM:  13    -0.943908653733E+02   -0.16042E-05   -0.55073E-06 29795   0.107E-02    0.639E-03
RMM:  14    -0.943908654675E+02   -0.94162E-07   -0.11244E-06 19960   0.635E-03
  11 F= -.94390865E+02 E0= -.94390865E+02  d E =-.812897E+00  mag=     0.0000
       N       E                     dE             d eps       ncg     rms          rms(c)
DAV:   1    -0.943165110147E+02    0.74354E-01   -0.84075E+00 44456   0.385E+01    0.167E+00
RMM:   2    -0.944593624478E+02   -0.14285E+00   -0.14742E+00 43851   0.674E+00    0.102E+00
RMM:   3    -0.944623213988E+02   -0.29590E-02   -0.10090E-01 37729   0.151E+00    0.691E-01
RMM:   4    -0.944589076235E+02    0.34138E-02   -0.66830E-03 39731   0.455E-01    0.383E-01
RMM:   5    -0.944578539371E+02    0.10537E-02   -0.17894E-03 37704   0.211E-01    0.238E-01
RMM:   6    -0.944575706195E+02    0.28332E-03   -0.16036E-03 35741   0.190E-01    0.628E-02
RMM:   7    -0.944575439142E+02    0.26705E-04   -0.21089E-04 42379   0.774E-02    0.312E-02
RMM:   8    -0.944575448410E+02   -0.92681E-06   -0.38203E-05 41413   0.284E-02    0.263E-02
RMM:   9    -0.944575421484E+02    0.26926E-05   -0.13761E-05 33547   0.176E-02    0.101E-02
RMM:  10    -0.944575417279E+02    0.42057E-06   -0.12997E-06 20065   0.685E-03
  12 F= -.94457542E+02 E0= -.94457542E+02  d E =-.666763E-01  mag=     0.0000
       N       E                     dE             d eps       ncg     rms          rms(c)
DAV:   1    -0.934036580975E+02    0.10539E+01   -0.76573E+01 44088   0.115E+02    0.521E+00
RMM:   2    -0.946397912387E+02   -0.12361E+01   -0.12842E+01 43482   0.198E+01    0.316E+00
RMM:   3    -0.946604989046E+02   -0.20708E-01   -0.96885E-01 37617   0.479E+00    0.215E+00
RMM:   4    -0.946276963605E+02    0.32803E-01   -0.62411E-02 40242   0.139E+00    0.118E+00
RMM:   5    -0.946186371639E+02    0.90592E-02   -0.15381E-02 37393   0.634E-01    0.751E-01
RMM:   6    -0.946160757851E+02    0.25614E-02   -0.14276E-02 36223   0.568E-01    0.204E-01
RMM:   7    -0.946157898236E+02    0.28596E-03   -0.20830E-03 40810   0.248E-01    0.872E-02
RMM:   8    -0.946157855057E+02    0.43179E-05   -0.26478E-04 45000   0.781E-02    0.587E-02
RMM:   9    -0.946157859301E+02   -0.42438E-06   -0.10673E-04 37345   0.495E-02    0.392E-02
RMM:  10    -0.946157796125E+02    0.63176E-05   -0.23844E-05 39618   0.257E-02    0.101E-02
RMM:  11    -0.946157793726E+02    0.23982E-06   -0.19375E-06 21744   0.696E-03
  13 F= -.94615779E+02 E0= -.94615779E+02  d E =-.224914E+00  mag=     0.0000
       N       E                     dE             d eps       ncg     rms          rms(c)
DAV:   1    -0.896713733606E+02    0.49444E+01   -0.30861E+02 43512   0.230E+02    0.117E+01
RMM:   2    -0.946114335425E+02   -0.49401E+01   -0.51568E+01 42778   0.394E+01    0.703E+00
RMM:   3    -0.947460184063E+02   -0.13458E+00   -0.48729E+00 38628   0.108E+01    0.455E+00
RMM:   4    -0.946092364146E+02    0.13678E+00   -0.26521E-01 41107   0.286E+00    0.260E+00
RMM:   5    -0.945781474348E+02    0.31089E-01   -0.53392E-02 39130   0.113E+00    0.179E+00
RMM:   6    -0.945664513965E+02    0.11696E-01   -0.56659E-02 36619   0.115E+00    0.476E-01
RMM:   7    -0.945653362980E+02    0.11151E-02   -0.96328E-03 38177   0.534E-01    0.191E-01
RMM:   8    -0.945652570471E+02    0.79251E-04   -0.12990E-03 46201   0.176E-01    0.122E-01
RMM:   9    -0.945652634010E+02   -0.63539E-05   -0.47851E-04 37462   0.107E-01    0.930E-02
RMM:  10    -0.945652362281E+02    0.27173E-04   -0.17709E-04 39046   0.679E-02    0.253E-02
RMM:  11    -0.945652301935E+02    0.60346E-05   -0.19271E-05 39907   0.219E-02    0.105E-02
RMM:  12    -0.945652296178E+02    0.57572E-06   -0.32431E-06 23163   0.104E-02
  14 F= -.94565230E+02 E0= -.94565230E+02  d E =-.174364E+00  mag=    -0.0000
       N       E                     dE             d eps       ncg     rms          rms(c)
DAV:   1    -0.924140453224E+02    0.21512E+01   -0.12953E+02 42064   0.149E+02    0.689E+00
RMM:   2    -0.946610308774E+02   -0.22470E+01   -0.22874E+01 42844   0.269E+01    0.437E+00
RMM:   3    -0.947317571188E+02   -0.70726E-01   -0.15673E+00 39106   0.598E+00    0.267E+00
RMM:   4    -0.946946505985E+02    0.37107E-01   -0.11149E-01 39212   0.178E+00    0.179E+00
RMM:   5    -0.946781218654E+02    0.16529E-01   -0.30299E-02 41608   0.849E-01    0.139E+00
RMM:   6    -0.946689497284E+02    0.91721E-02   -0.29891E-02 34620   0.909E-01    0.336E-01
RMM:   7    -0.946687290886E+02    0.22064E-03   -0.41289E-03 42547   0.323E-01    0.139E-01
RMM:   8    -0.946687421387E+02   -0.13050E-04   -0.54897E-04 45836   0.108E-01    0.877E-02
RMM:   9    -0.946687421782E+02   -0.39507E-07   -0.23194E-04 37933   0.757E-02    0.697E-02
RMM:  10    -0.946687290879E+02    0.13090E-04   -0.98979E-05 36529   0.525E-02    0.173E-02
RMM:  11    -0.946687246472E+02    0.44406E-05   -0.12063E-05 38464   0.199E-02    0.108E-02
RMM:  12    -0.946687246963E+02   -0.49084E-07   -0.12786E-06 19950   0.644E-03
  15 F= -.94668725E+02 E0= -.94668725E+02  d E =-.277859E+00  mag=    -0.0000
       N       E                     dE             d eps       ncg     rms          rms(c)
DAV:   1    -0.948140748328E+02   -0.14535E+00   -0.19680E+00 40080   0.159E+01    0.182E+00
RMM:   2    -0.948296817637E+02   -0.15607E-01   -0.48944E-01 42312   0.419E+00    0.169E+00
RMM:   3    -0.948075962667E+02    0.22085E-01   -0.11492E-01 38160   0.162E+00    0.662E-01
RMM:   4    -0.948024719167E+02    0.51244E-02   -0.14419E-02 35486   0.574E-01    0.323E-01
RMM:   5    -0.948016913696E+02    0.78055E-03   -0.24227E-03 36129   0.266E-01    0.129E-01
RMM:   6    -0.948015392481E+02    0.15212E-03   -0.52107E-04 35755   0.114E-01    0.701E-02
RMM:   7    -0.948015313428E+02    0.79053E-05   -0.15456E-04 41683   0.566E-02    0.380E-02
RMM:   8    -0.948015270399E+02    0.43029E-05   -0.32595E-05 40818   0.256E-02    0.249E-02
RMM:   9    -0.948015250734E+02    0.19665E-05   -0.13076E-05 37656   0.158E-02    0.118E-02
RMM:  10    -0.948015246507E+02    0.42272E-06   -0.13140E-06 20101   0.641E-03
  16 F= -.94801525E+02 E0= -.94801525E+02  d E =-.132800E+00  mag=    -0.0000
       N       E                     dE             d eps       ncg     rms          rms(c)
DAV:   1    -0.952548237679E+02   -0.45330E+00   -0.17707E+01 39972   0.476E+01    0.548E+00
RMM:   2    -0.953572220061E+02   -0.10240E+00   -0.41856E+00 42365   0.124E+01    0.468E+00
RMM:   3    -0.952037326270E+02    0.15349E+00   -0.97633E-01 38335   0.477E+00    0.210E+00
RMM:   4    -0.951549034173E+02    0.48829E-01   -0.12329E-01 34852   0.176E+00    0.937E-01
RMM:   5    -0.951487494259E+02    0.61540E-02   -0.20519E-02 36700   0.756E-01    0.393E-01
RMM:   6    -0.951474495297E+02    0.12999E-02   -0.44761E-03 35523   0.335E-01    0.211E-01
RMM:   7    -0.951473518451E+02    0.97685E-04   -0.12802E-03 41338   0.161E-01    0.959E-02
RMM:   8    -0.951473403140E+02    0.11531E-04   -0.22662E-04 42905   0.662E-02    0.736E-02
RMM:   9    -0.951473295331E+02    0.10781E-04   -0.12243E-04 38301   0.484E-02    0.395E-02
RMM:  10    -0.951473256281E+02    0.39050E-05   -0.15737E-05 39078   0.198E-02    0.127E-02
RMM:  11    -0.951473244505E+02    0.11776E-05   -0.73203E-06 33438   0.116E-02    0.729E-03
RMM:  12    -0.951473241458E+02    0.30477E-06   -0.13782E-06 20103   0.606E-03
  17 F= -.95147324E+02 E0= -.95147324E+02  d E =-.478599E+00  mag=     0.0000
       N       E                     dE             d eps       ncg     rms          rms(c)
DAV:   1    -0.959500614086E+02   -0.80274E+00   -0.71186E+01 40248   0.949E+01    0.112E+01
RMM:   2    -0.961680393618E+02   -0.21798E+00   -0.15570E+01 42461   0.242E+01    0.810E+00
RMM:   3    -0.957818947014E+02    0.38614E+00   -0.34487E+00 38826   0.911E+00    0.445E+00
RMM:   4    -0.955834266247E+02    0.19847E+00   -0.45921E-01 34415   0.359E+00    0.182E+00
RMM:   5    -0.955646693074E+02    0.18757E-01   -0.76917E-02 37064   0.140E+00    0.802E-01
RMM:   6    -0.955597694691E+02    0.48998E-02   -0.17115E-02 35409   0.665E-01    0.429E-01
RMM:   7    -0.955593386529E+02    0.43082E-03   -0.48370E-03 40935   0.314E-01    0.187E-01
RMM:   8    -0.955592921791E+02    0.46474E-04   -0.65465E-04 44098   0.115E-01    0.126E-01
RMM:   9    -0.955593038743E+02   -0.11695E-04   -0.47925E-04 38551   0.948E-02    0.922E-02
RMM:  10    -0.955592700202E+02    0.33854E-04   -0.91286E-05 39743   0.467E-02    0.259E-02
RMM:  11    -0.955592631667E+02    0.68535E-05   -0.33996E-05 37230   0.234E-02    0.113E-02
RMM:  12    -0.955592626367E+02    0.52997E-06   -0.52441E-06 30455   0.104E-02
  18 F= -.95559263E+02 E0= -.95559263E+02  d E =-.890538E+00  mag=     0.0000
       N       E                     dE             d eps       ncg     rms          rms(c)
DAV:   1    -0.956976636693E+02   -0.13840E+00   -0.16748E+01 39048   0.462E+01    0.552E+00
RMM:   2    -0.957550842989E+02   -0.57421E-01   -0.36521E+00 42490   0.118E+01    0.394E+00
RMM:   3    -0.956493221755E+02    0.10576E+00   -0.82080E-01 39029   0.442E+00    0.215E+00
RMM:   4    -0.956053766998E+02    0.43945E-01   -0.10302E-01 34563   0.167E+00    0.937E-01
RMM:   5    -0.956002855544E+02    0.50911E-02   -0.18294E-02 36248   0.704E-01    0.367E-01
RMM:   6    -0.955991774558E+02    0.11081E-02   -0.40393E-03 35527   0.324E-01    0.202E-01
RMM:   7    -0.955990963304E+02    0.81125E-04   -0.11120E-03 41666   0.150E-01    0.893E-02
RMM:   8    -0.955990815406E+02    0.14790E-04   -0.14856E-04 42990   0.551E-02    0.619E-02
RMM:   9    -0.955990810111E+02    0.52952E-06   -0.10874E-04 38216   0.459E-02    0.418E-02
RMM:  10    -0.955990745222E+02    0.64889E-05   -0.16687E-05 37821   0.206E-02    0.126E-02
RMM:  11    -0.955990731212E+02    0.14009E-05   -0.88903E-06 35363   0.121E-02    0.549E-03
RMM:  12    -0.955990729152E+02    0.20599E-06   -0.83839E-07 19903   0.505E-03
  19 F= -.95599073E+02 E0= -.95599073E+02  d E =-.930348E+00  mag=     0.0000
       N       E                     dE             d eps       ncg     rms          rms(c)
DAV:   1    -0.957485038726E+02   -0.14943E+00   -0.88876E+00 34416   0.261E+01    0.313E+00
RMM:   2    -0.957821110723E+02   -0.33607E-01   -0.12295E+00 42474   0.705E+00    0.243E+00
RMM:   3    -0.957410761428E+02    0.41035E-01   -0.24250E-01 38286   0.248E+00    0.122E+00
RMM:   4    -0.957280198808E+02    0.13056E-01   -0.29681E-02 37032   0.837E-01    0.600E-01
RMM:   5    -0.957259297225E+02    0.20902E-02   -0.63516E-03 36497   0.410E-01    0.229E-01
RMM:   6    -0.957256390734E+02    0.29065E-03   -0.14712E-03 36132   0.186E-01    0.132E-01
RMM:   7    -0.957256312838E+02    0.77895E-05   -0.40441E-04 43193   0.876E-02    0.642E-02
RMM:   8    -0.957256264695E+02    0.48144E-05   -0.70800E-05 41715   0.363E-02    0.333E-02
RMM:   9    -0.957256288240E+02   -0.23545E-05   -0.30508E-05 35880   0.251E-02    0.238E-02
RMM:  10    -0.957256258110E+02    0.30130E-05   -0.79175E-06 33817   0.140E-02    0.551E-03
RMM:  11    -0.957256256403E+02    0.17063E-06   -0.11021E-06 20077   0.500E-03
  20 F= -.95725626E+02 E0= -.95725626E+02  d E =-.126553E+00  mag=    -0.0000
       N       E                     dE             d eps       ncg     rms          rms(c)
DAV:   1    -0.959910659290E+02   -0.26544E+00   -0.60170E+01 34352   0.677E+01    0.809E+00
RMM:   2    -0.963180233311E+02   -0.32696E+00   -0.90821E+00 42347   0.187E+01    0.697E+00
RMM:   3    -0.959345381235E+02    0.38349E+00   -0.16266E+00 38576   0.644E+00    0.292E+00
RMM:   4    -0.958600469733E+02    0.74491E-01   -0.22771E-01 39429   0.217E+00    0.166E+00
RMM:   5    -0.958422740312E+02    0.17773E-01   -0.54869E-02 36104   0.122E+00    0.608E-01
RMM:   6    -0.958400857497E+02    0.21883E-02   -0.10768E-02 37180   0.505E-01    0.369E-01
RMM:   7    -0.958401223730E+02   -0.36623E-04   -0.31912E-03 43242   0.239E-01    0.186E-01
RMM:   8    -0.958400352181E+02    0.87155E-04   -0.73604E-04 41350   0.116E-01    0.923E-02
RMM:   9    -0.958400487878E+02   -0.13570E-04   -0.23775E-04 38131   0.684E-02    0.650E-02
RMM:  10    -0.958400253721E+02    0.23416E-04   -0.67901E-05 39188   0.400E-02    0.173E-02
RMM:  11    -0.958400240683E+02    0.13038E-05   -0.11258E-05 38368   0.133E-02    0.751E-03
RMM:  12    -0.958400240792E+02   -0.10901E-07   -0.14063E-06 19953   0.636E-03
  21 F= -.95840024E+02 E0= -.95840024E+02  d E =-.240951E+00  mag=     0.0000
       N       E                     dE             d eps       ncg     rms          rms(c)
DAV:   1    -0.958431057205E+02   -0.30817E-02   -0.63789E-01 34876   0.698E+00    0.812E-01
RMM:   2    -0.958453262724E+02   -0.22206E-02   -0.84281E-02 42469   0.185E+00    0.630E-01
RMM:   3    -0.958428699624E+02    0.24563E-02   -0.16725E-02 38240   0.653E-01    0.327E-01
RMM:   4    -0.958418824554E+02    0.98751E-03   -0.19975E-03 35794   0.225E-01    0.151E-01
RMM:   5    -0.958417535264E+02    0.12893E-03   -0.40656E-04 37402   0.102E-01    0.615E-02
RMM:   6    -0.958417330166E+02    0.20510E-04   -0.98206E-05 36062   0.484E-02    0.343E-02
RMM:   7    -0.958417317039E+02    0.13127E-05   -0.27462E-05 40885   0.231E-02    0.171E-02
RMM:   8    -0.958417312121E+02    0.49182E-06   -0.42273E-06 29725   0.983E-03
  22 F= -.95841731E+02 E0= -.95841731E+02  d E =-.242658E+00  mag=    -0.0000
       N       E                     dE             d eps       ncg     rms          rms(c)
DAV:   1    -0.958113047903E+02    0.30427E-01   -0.45412E+00 44432   0.282E+01    0.147E+00
RMM:   2    -0.958866766424E+02   -0.75372E-01   -0.83039E-01 42820   0.540E+00    0.887E-01
RMM:   3    -0.958892793367E+02   -0.26027E-02   -0.56481E-02 38508   0.120E+00    0.556E-01
RMM:   4    -0.958871733637E+02    0.21060E-02   -0.56098E-03 38776   0.399E-01    0.358E-01
RMM:   5    -0.958862932096E+02    0.88015E-03   -0.18776E-03 40718   0.216E-01    0.186E-01
RMM:   6    -0.958861908884E+02    0.10232E-03   -0.51036E-04 40056   0.109E-01    0.626E-02
RMM:   7    -0.958861889682E+02    0.19201E-05   -0.84418E-05 43571   0.437E-02    0.396E-02
RMM:   8    -0.958861901993E+02   -0.12311E-05   -0.39900E-05 37321   0.297E-02    0.266E-02
RMM:   9    -0.958861881452E+02    0.20541E-05   -0.10243E-05 33997   0.163E-02    0.764E-03
RMM:  10    -0.958861878532E+02    0.29199E-06   -0.11669E-06 20024   0.657E-03
  23 F= -.95886188E+02 E0= -.95886188E+02  d E =-.444566E-01  mag=     0.0000
       N       E                     dE             d eps       ncg     rms          rms(c)
DAV:   1    -0.956853072625E+02    0.20088E+00   -0.13877E+01 44016   0.493E+01    0.257E+00
RMM:   2    -0.959180751440E+02   -0.23277E+00   -0.25602E+00 42820   0.945E+00    0.158E+00
RMM:   3    -0.959257709848E+02   -0.76958E-02   -0.17303E-01 38409   0.209E+00    0.968E-01
RMM:   4    -0.959193721701E+02    0.63988E-02   -0.17454E-02 38852   0.703E-01    0.631E-01
RMM:   5    -0.959166692979E+02    0.27029E-02   -0.57687E-03 40725   0.378E-01    0.330E-01
RMM:   6    -0.959163397269E+02    0.32957E-03   -0.15689E-03 39657   0.191E-01    0.110E-01
RMM:   7    -0.959163288004E+02    0.10926E-04   -0.23249E-04 44343   0.733E-02    0.578E-02
RMM:   8    -0.959163345481E+02   -0.57477E-05   -0.61840E-05 38168   0.397E-02    0.288E-02
RMM:   9    -0.959163327268E+02    0.18213E-05   -0.21386E-05 35433   0.220E-02    0.165E-02
RMM:  10    -0.959163315721E+02    0.11547E-05   -0.38914E-06 25965   0.107E-02    0.586E-03
RMM:  11    -0.959163315726E+02   -0.50022E-09   -0.59962E-07 19882   0.465E-03
  24 F= -.95916332E+02 E0= -.95916332E+02  d E =-.746004E-01  mag=    -0.0000
       N       E                     dE             d eps       ncg     rms          rms(c)
DAV:   1    -0.958970207713E+02    0.19311E-01   -0.34912E+00 42880   0.234E+01    0.157E+00
RMM:   2    -0.959415828951E+02   -0.44562E-01   -0.61686E-01 43205   0.485E+00    0.897E-01
RMM:   3    -0.959410740580E+02    0.50884E-03   -0.58451E-02 41440   0.119E+00    0.629E-01
RMM:   4    -0.959377534820E+02    0.33206E-02   -0.10764E-02 34421   0.564E-01    0.371E-01
RMM:   5    -0.959369437864E+02    0.80970E-03   -0.18132E-03 42783   0.205E-01    0.142E-01
RMM:   6    -0.959368652669E+02    0.78520E-04   -0.34449E-04 40697   0.867E-02    0.740E-02
RMM:   7    -0.959368508668E+02    0.14400E-04   -0.13631E-04 39823   0.526E-02    0.314E-02
RMM:   8    -0.959368476156E+02    0.32511E-05   -0.22719E-05 40687   0.230E-02    0.194E-02
RMM:   9    -0.959368471730E+02    0.44267E-06   -0.91654E-06 32001   0.143E-02
  25 F= -.95936847E+02 E0= -.95936847E+02  d E =-.205156E-01  mag=    -0.0000
       N       E                     dE             d eps       ncg     rms          rms(c)
DAV:   1    -0.958939195756E+02    0.42928E-01   -0.44599E+00 42832   0.265E+01    0.178E+00
RMM:   2    -0.959505949325E+02   -0.56675E-01   -0.78700E-01 43187   0.548E+00    0.101E+00
RMM:   3    -0.959499990051E+02    0.59593E-03   -0.74924E-02 41522   0.135E+00    0.709E-01
RMM:   4    -0.959457674003E+02    0.42316E-02   -0.13884E-02 34396   0.641E-01    0.421E-01
RMM:   5    -0.959447405262E+02    0.10269E-02   -0.23185E-03 42748   0.232E-01    0.162E-01
RMM:   6    -0.959446386150E+02    0.10191E-03   -0.43370E-04 40644   0.974E-02    0.840E-02
RMM:   7    -0.959446198581E+02    0.18757E-04   -0.17016E-04 39416   0.588E-02    0.333E-02
RMM:   8    -0.959446154511E+02    0.44069E-05   -0.21917E-05 41558   0.229E-02    0.171E-02
RMM:   9    -0.959446155945E+02   -0.14334E-06   -0.61708E-06 31975   0.119E-02
  26 F= -.95944616E+02 E0= -.95944616E+02  d E =-.282840E-01  mag=    -0.0000
       N       E                     dE             d eps       ncg     rms          rms(c)
DAV:   1    -0.959711438273E+02   -0.26528E-01   -0.11649E+00 34200   0.100E+01    0.158E+00
RMM:   2    -0.959742623883E+02   -0.31186E-02   -0.31698E-01 41047   0.316E+00    0.165E+00
RMM:   3    -0.959517439115E+02    0.22518E-01   -0.71197E-02 38951   0.131E+00    0.387E-01
RMM:   4    -0.959499583141E+02    0.17856E-02   -0.13328E-02 39387   0.456E-01    0.281E-01
RMM:   5    -0.959491906602E+02    0.76765E-03   -0.15117E-03 35975   0.206E-01    0.104E-01
RMM:   6    -0.959491184544E+02    0.72206E-04   -0.47688E-04 35855   0.924E-02    0.504E-02
RMM:   7    -0.959491146631E+02    0.37914E-05   -0.61436E-05 40358   0.395E-02    0.263E-02
RMM:   8    -0.959491136016E+02    0.10615E-05   -0.23343E-05 37850   0.217E-02    0.186E-02
RMM:   9    -0.959491130222E+02    0.57943E-06   -0.62449E-06 33180   0.118E-02
  27 F= -.95949113E+02 E0= -.95949113E+02  d E =-.449743E-02  mag=    -0.0000
       N       E                     dE             d eps       ncg     rms          rms(c)
DAV:   1    -0.959537209820E+02   -0.46074E-02   -0.22021E-01 34204   0.435E+00    0.686E-01
RMM:   2    -0.959542332643E+02   -0.51228E-03   -0.59387E-02 41102   0.137E+00    0.716E-01
RMM:   3    -0.959500630655E+02    0.41702E-02   -0.13487E-02 38881   0.570E-01    0.169E-01
RMM:   4    -0.959497105310E+02    0.35253E-03   -0.24288E-03 39235   0.197E-01    0.119E-01
RMM:   5    -0.959495744856E+02    0.13605E-03   -0.27669E-04 35982   0.888E-02    0.442E-02
RMM:   6    -0.959495608004E+02    0.13685E-04   -0.84093E-05 35673   0.397E-02    0.212E-02
RMM:   7    -0.959495602203E+02    0.58009E-06   -0.10003E-05 35955   0.164E-02    0.921E-03
RMM:   8    -0.959495603113E+02   -0.91015E-07   -0.28420E-06 23143   0.827E-03
  28 F= -.95949560E+02 E0= -.95949560E+02  d E =-.494472E-02  mag=     0.0000
       N       E                     dE             d eps       ncg     rms          rms(c)
DAV:   1    -0.959473943002E+02    0.21659E-02   -0.61255E-01 37428   0.816E+00    0.481E-01
RMM:   2    -0.959525478427E+02   -0.51535E-02   -0.71817E-02 43478   0.164E+00    0.362E-01
RMM:   3    -0.959518812864E+02    0.66656E-03   -0.74044E-03 39932   0.414E-01    0.194E-01
RMM:   4    -0.959515148985E+02    0.36639E-03   -0.75812E-04 35553   0.142E-01    0.100E-01
RMM:   5    -0.959514474021E+02    0.67496E-04   -0.23449E-04 36977   0.683E-02    0.495E-02
RMM:   6    -0.959514325668E+02    0.14835E-04   -0.63461E-05 37913   0.376E-02    0.220E-02
RMM:   7    -0.959514325749E+02   -0.80945E-08   -0.10612E-05 37541   0.165E-02    0.118E-02
RMM:   8    -0.959514328540E+02   -0.27911E-06   -0.25053E-06 21622   0.902E-03
  29 F= -.95951433E+02 E0= -.95951433E+02  d E =-.187254E-02  mag=     0.0000
       N       E                     dE             d eps       ncg     rms          rms(c)
DAV:   1    -0.959494838496E+02    0.19487E-02   -0.35310E-01 37424   0.620E+00    0.366E-01
RMM:   2    -0.959524444534E+02   -0.29606E-02   -0.41417E-02 43517   0.124E+00    0.275E-01
RMM:   3    -0.959520626678E+02    0.38179E-03   -0.42383E-03 39900   0.313E-01    0.147E-01
RMM:   4    -0.959518523564E+02    0.21031E-03   -0.43856E-04 35547   0.108E-01    0.760E-02
RMM:   5    -0.959518139777E+02    0.38379E-04   -0.13459E-04 37030   0.516E-02    0.376E-02
RMM:   6    -0.959518056359E+02    0.83418E-05   -0.36437E-05 37882   0.285E-02    0.167E-02
RMM:   7    -0.959518056829E+02   -0.47041E-07   -0.58265E-06 32628   0.124E-02
  30 F= -.95951806E+02 E0= -.95951806E+02  d E =-.224537E-02  mag=    -0.0000
       N       E                     dE             d eps       ncg     rms          rms(c)
DAV:   1    -0.959481511734E+02    0.36545E-02   -0.53597E-01 37168   0.745E+00    0.312E-01
RMM:   2    -0.959533044140E+02   -0.51532E-02   -0.55472E-02 43118   0.138E+00    0.178E-01
RMM:   3    -0.959533448910E+02   -0.40477E-04   -0.31933E-03 40662   0.278E-01    0.112E-01
RMM:   4    -0.959532551812E+02    0.89710E-04   -0.26072E-04 37634   0.845E-02    0.709E-02
RMM:   5    -0.959532203437E+02    0.34838E-04   -0.64458E-05 40545   0.390E-02    0.419E-02
RMM:   6    -0.959532155838E+02    0.47599E-05   -0.42929E-05 36454   0.325E-02    0.108E-02
RMM:   7    -0.959532156274E+02   -0.43648E-07   -0.46543E-06 27922   0.120E-02
  31 F= -.95953216E+02 E0= -.95953216E+02  d E =-.140994E-02  mag=     0.0000
       N       E                     dE             d eps       ncg     rms          rms(c)
DAV:   1    -0.959255183449E+02    0.27697E-01   -0.31253E+00 37168   0.180E+01    0.755E-01
RMM:   2    -0.959557206595E+02   -0.30202E-01   -0.32438E-01 43118   0.334E+00    0.437E-01
RMM:   3    -0.959558687935E+02   -0.14813E-03   -0.18722E-02 40640   0.674E-01    0.273E-01
RMM:   4    -0.959553394738E+02    0.52932E-03   -0.15367E-03 37575   0.205E-01    0.172E-01
RMM:   5    -0.959551340810E+02    0.20539E-03   -0.38414E-04 40540   0.952E-02    0.102E-01
RMM:   6    -0.959551033456E+02    0.30735E-04   -0.25341E-04 36500   0.789E-02    0.258E-02
RMM:   7    -0.959551033902E+02   -0.44622E-07   -0.28128E-05 39704   0.283E-02    0.164E-02
RMM:   8    -0.959551033322E+02    0.57998E-07   -0.63300E-06 31046   0.128E-02
  32 F= -.95955103E+02 E0= -.95955103E+02  d E =-.329765E-02  mag=     0.0000
       N       E                     dE             d eps       ncg     rms          rms(c)
DAV:   1    -0.959502797982E+02    0.48236E-02   -0.53230E-01 37216   0.742E+00    0.312E-01
RMM:   2    -0.959554057894E+02   -0.51260E-02   -0.55186E-02 43116   0.138E+00    0.178E-01
RMM:   3    -0.959554399709E+02   -0.34182E-04   -0.32144E-03 40630   0.279E-01    0.113E-01
RMM:   4    -0.959553494426E+02    0.90528E-04   -0.26065E-04 37717   0.844E-02    0.703E-02
RMM:   5    -0.959553152677E+02    0.34175E-04   -0.63677E-05 40466   0.387E-02    0.417E-02
RMM:   6    -0.959553103008E+02    0.49669E-05   -0.42968E-05 36428   0.325E-02    0.103E-02
RMM:   7    -0.959553102975E+02    0.32960E-08   -0.38593E-06 25642   0.113E-02
  33 F= -.95955310E+02 E0= -.95955310E+02  d E =-.350461E-02  mag=     0.0000
       N       E                     dE             d eps       ncg     rms          rms(c)
DAV:   1    -0.959508042248E+02    0.45061E-02   -0.51178E-01 38912   0.829E+00    0.410E-01
RMM:   2    -0.959570996817E+02   -0.62955E-02   -0.71016E-02 43095   0.154E+00    0.246E-01
RMM:   3    -0.959569883512E+02    0.11133E-03   -0.56818E-03 39317   0.371E-01    0.163E-01
RMM:   4    -0.959567935931E+02    0.19476E-03   -0.43150E-04 37275   0.113E-01    0.805E-02
RMM:   5    -0.959567468041E+02    0.46789E-04   -0.11743E-04 39181   0.549E-02    0.442E-02
RMM:   6    -0.959567396791E+02    0.71250E-05   -0.50062E-05 38036   0.347E-02    0.158E-02
RMM:   7    -0.959567399469E+02   -0.26778E-06   -0.85692E-06 34712   0.153E-02
  34 F= -.95956740E+02 E0= -.95956740E+02  d E =-.142965E-02  mag=     0.0000
       N       E                     dE             d eps       ncg     rms          rms(c)
DAV:   1    -0.959239916001E+02    0.32748E-01   -0.30276E+00 38864   0.202E+01    0.997E-01
RMM:   2    -0.959615154920E+02   -0.37524E-01   -0.42209E-01 43093   0.375E+00    0.610E-01
RMM:   3    -0.959607282669E+02    0.78723E-03   -0.33773E-02 39473   0.904E-01    0.399E-01
RMM:   4    -0.959595751259E+02    0.11531E-02   -0.25421E-03 37244   0.273E-01    0.198E-01
RMM:   5    -0.959592911406E+02    0.28399E-03   -0.70360E-04 39319   0.134E-01    0.109E-01
RMM:   6    -0.959592450689E+02    0.46072E-04   -0.29166E-04 37999   0.840E-02    0.367E-02
RMM:   7    -0.959592455947E+02   -0.52572E-06   -0.40480E-05 40588   0.337E-02    0.193E-02
RMM:   8    -0.959592466463E+02   -0.10517E-05   -0.10053E-05 34884   0.158E-02    0.137E-02
RMM:   9    -0.959592465162E+02    0.13010E-06   -0.26675E-06 22065   0.931E-03
  35 F= -.95959247E+02 E0= -.95959247E+02  d E =-.393622E-02  mag=     0.0000
       N       E                     dE             d eps       ncg     rms          rms(c)
DAV:   1    -0.958178295986E+02    0.14142E+00   -0.12113E+01 38880   0.403E+01    0.200E+00
RMM:   2    -0.959700027212E+02   -0.15217E+00   -0.17041E+00 43092   0.754E+00    0.127E+00
RMM:   3    -0.959657862663E+02    0.42165E-02   -0.13646E-01 39574   0.182E+00    0.803E-01
RMM:   4    -0.959611898099E+02    0.45965E-02   -0.10229E-02 37288   0.547E-01    0.400E-01
RMM:   5    -0.959600304898E+02    0.11593E-02   -0.29085E-03 39448   0.272E-01    0.221E-01
RMM:   6    -0.959598399581E+02    0.19053E-03   -0.11817E-03 37972   0.169E-01    0.764E-02
RMM:   7    -0.959598407701E+02   -0.81198E-06   -0.16877E-04 41323   0.686E-02    0.391E-02
RMM:   8    -0.959598444161E+02   -0.36460E-05   -0.40470E-05 38959   0.318E-02    0.267E-02
RMM:   9    -0.959598435521E+02    0.86397E-06   -0.12045E-05 34833   0.173E-02    0.113E-02
RMM:  10    -0.959598437927E+02   -0.24056E-06   -0.14404E-06 20143   0.736E-03
  36 F= -.95959844E+02 E0= -.95959844E+02  d E =-.453350E-02  mag=     0.0000
       N       E                     dE             d eps       ncg     rms          rms(c)
DAV:   1    -0.959359221641E+02    0.23921E-01   -0.21197E+00 38976   0.169E+01    0.832E-01
RMM:   2    -0.959617362297E+02   -0.25814E-01   -0.29202E-01 43120   0.311E+00    0.490E-01
RMM:   3    -0.959613731237E+02    0.36311E-03   -0.23634E-02 39151   0.756E-01    0.334E-01
RMM:   4    -0.959605437166E+02    0.82941E-03   -0.17790E-03 37380   0.230E-01    0.162E-01
RMM:   5    -0.959603507842E+02    0.19293E-03   -0.48081E-04 38565   0.111E-01    0.878E-02
RMM:   6    -0.959603165821E+02    0.34202E-04   -0.20170E-04 37991   0.692E-02    0.288E-02
RMM:   7    -0.959603160666E+02    0.51551E-06   -0.26219E-05 40760   0.273E-02    0.147E-02
RMM:   8    -0.959603161226E+02   -0.55967E-07   -0.52139E-06 31100   0.119E-02
  37 F= -.95960316E+02 E0= -.95960316E+02  d E =-.500583E-02  mag=     0.0000
       N       E                     dE             d eps       ncg     rms          rms(c)
DAV:   1    -0.959565167458E+02    0.37993E-02   -0.36893E-01 39408   0.706E+00    0.288E-01
RMM:   2    -0.959612994499E+02   -0.47827E-02   -0.48101E-02 42908   0.125E+00    0.148E-01
RMM:   3    -0.959614763864E+02   -0.17694E-03   -0.25281E-03 40049   0.228E-01    0.923E-02
RMM:   4    -0.959614234144E+02    0.52972E-04   -0.14052E-04 40117   0.605E-02    0.629E-02
RMM:   5    -0.959614008087E+02    0.22606E-04   -0.86031E-05 40300   0.448E-02    0.477E-02
RMM:   6    -0.959613917854E+02    0.90233E-05   -0.46088E-05 34318   0.370E-02    0.908E-03
RMM:   7    -0.959613912993E+02    0.48613E-06   -0.32723E-06 25207   0.964E-03
  38 F= -.95961391E+02 E0= -.95961391E+02  d E =-.107518E-02  mag=     0.0000
       N       E                     dE             d eps       ncg     rms          rms(c)
DAV:   1    -0.959196228185E+02    0.41769E-01   -0.33186E+00 39312   0.211E+01    0.868E-01
RMM:   2    -0.959626442404E+02   -0.43021E-01   -0.43319E-01 42889   0.375E+00    0.443E-01
RMM:   3    -0.959643020173E+02   -0.16578E-02   -0.23020E-02 40101   0.685E-01    0.275E-01
RMM:   4    -0.959638330879E+02    0.46893E-03   -0.12413E-03 40318   0.179E-01    0.188E-01
RMM:   5    -0.959636365416E+02    0.19655E-03   -0.75710E-04 40089   0.133E-01    0.140E-01
RMM:   6    -0.959635642082E+02    0.72333E-04   -0.39869E-04 34357   0.109E-01    0.275E-02
RMM:   7    -0.959635599841E+02    0.42241E-05   -0.30240E-05 44542   0.284E-02    0.191E-02
RMM:   8    -0.959635598751E+02    0.10897E-06   -0.79898E-06 32516   0.135E-02
  39 F= -.95963560E+02 E0= -.95963560E+02  d E =-.324375E-02  mag=    -0.0000
       N       E                     dE             d eps       ncg     rms          rms(c)
DAV:   1    -0.957868219603E+02    0.17674E+00   -0.13265E+01 39328   0.422E+01    0.175E+00
RMM:   2    -0.959587993686E+02   -0.17198E+00   -0.17336E+00 42856   0.750E+00    0.900E-01
RMM:   3    -0.959658116119E+02   -0.70122E-02   -0.93674E-02 40192   0.138E+00    0.546E-01
RMM:   4    -0.959639286715E+02    0.18829E-02   -0.48249E-03 40498   0.352E-01    0.374E-01
RMM:   5    -0.959631562829E+02    0.77239E-03   -0.29714E-03 39801   0.265E-01    0.269E-01
RMM:   6    -0.959629011540E+02    0.25513E-03   -0.14944E-03 34438   0.209E-01    0.551E-02
RMM:   7    -0.959628839250E+02    0.17229E-04   -0.11331E-04 44649   0.553E-02    0.371E-02
RMM:   8    -0.959628845879E+02   -0.66288E-06   -0.29273E-05 38308   0.254E-02    0.232E-02
RMM:   9    -0.959628839490E+02    0.63891E-06   -0.12286E-05 35345   0.181E-02    0.126E-02
RMM:  10    -0.959628835058E+02    0.44323E-06   -0.20320E-06 20773   0.899E-03
  40 F= -.95962884E+02 E0= -.95962884E+02  d E =-.256738E-02  mag=    -0.0000
       N       E                     dE             d eps       ncg     rms          rms(c)
DAV:   1    -0.958980534689E+02    0.64830E-01   -0.50122E+00 39392   0.260E+01    0.106E+00
RMM:   2    -0.959629691388E+02   -0.64916E-01   -0.65221E-01 42914   0.460E+00    0.556E-01
RMM:   3    -0.959652472496E+02   -0.22781E-02   -0.33786E-02 40056   0.832E-01    0.341E-01
RMM:   4    -0.959645226961E+02    0.72455E-03   -0.19063E-03 39974   0.223E-01    0.232E-01
RMM:   5    -0.959642398094E+02    0.28289E-03   -0.12715E-03 40317   0.172E-01    0.182E-01
RMM:   6    -0.959641046278E+02    0.13518E-03   -0.66483E-04 34298   0.141E-01    0.319E-02
RMM:   7    -0.959640969862E+02    0.76416E-05   -0.45170E-05 45065   0.340E-02    0.209E-02
RMM:   8    -0.959640971183E+02   -0.13210E-06   -0.10292E-05 34721   0.154E-02    0.136E-02
RMM:   9    -0.959640969446E+02    0.17370E-06   -0.42088E-06 26734   0.108E-02
  41 F= -.95964097E+02 E0= -.95964097E+02  d E =-.378082E-02  mag=    -0.0000
       N       E                     dE             d eps       ncg     rms          rms(c)
DAV:   1    -0.959620438765E+02    0.20532E-02   -0.24321E-01 37632   0.548E+00    0.223E-01
RMM:   2    -0.959649102116E+02   -0.28663E-02   -0.29274E-02 42985   0.965E-01    0.119E-01
RMM:   3    -0.959650031101E+02   -0.92899E-04   -0.15897E-03 39459   0.186E-01    0.769E-02
RMM:   4    -0.959649660109E+02    0.37099E-04   -0.98515E-05 41542   0.500E-02    0.518E-02
RMM:   5    -0.959649448826E+02    0.21128E-04   -0.33632E-05 38104   0.287E-02    0.313E-02
RMM:   6    -0.959649414614E+02    0.34212E-05   -0.23831E-05 34702   0.248E-02    0.819E-03
RMM:   7    -0.959649411941E+02    0.26726E-06   -0.26148E-06 22968   0.864E-03
  42 F= -.95964941E+02 E0= -.95964941E+02  d E =-.844250E-03  mag=    -0.0000
       N       E                     dE             d eps       ncg     rms          rms(c)
DAV:   1    -0.959411204545E+02    0.23821E-01   -0.21902E+00 37592   0.164E+01    0.669E-01
RMM:   2    -0.959668374998E+02   -0.25717E-01   -0.26287E-01 43000   0.289E+00    0.355E-01
RMM:   3    -0.959676813306E+02   -0.84383E-03   -0.14172E-02 39546   0.555E-01    0.230E-01
RMM:   4    -0.959673514618E+02    0.32987E-03   -0.87380E-04 41702   0.148E-01    0.155E-01
RMM:   5    -0.959671604757E+02    0.19099E-03   -0.30791E-04 37884   0.868E-02    0.922E-02
RMM:   6    -0.959671331576E+02    0.27318E-04   -0.21033E-04 34750   0.735E-02    0.244E-02
RMM:   7    -0.959671309714E+02    0.21862E-05   -0.25544E-05 43080   0.253E-02    0.195E-02
RMM:   8    -0.959671298635E+02    0.11079E-05   -0.56096E-06 28792   0.118E-02    0.108E-02
RMM:   9    -0.959671299037E+02   -0.40185E-07   -0.15501E-06 19888   0.815E-03
  43 F= -.95967130E+02 E0= -.95967130E+02  d E =-.303296E-02  mag=    -0.0000
       N       E                     dE             d eps       ncg     rms          rms(c)
DAV:   1    -0.958662708455E+02    0.10086E+00   -0.87629E+00 37672   0.329E+01    0.134E+00
RMM:   2    -0.959687271183E+02   -0.10246E+00   -0.10477E+00 43010   0.577E+00    0.705E-01
RMM:   3    -0.959721016885E+02   -0.33746E-02   -0.56434E-02 39564   0.111E+00    0.458E-01
RMM:   4    -0.959707841477E+02    0.13175E-02   -0.34173E-03 41753   0.293E-01    0.309E-01
RMM:   5    -0.959700094210E+02    0.77473E-03   -0.12384E-03 37614   0.174E-01    0.180E-01
RMM:   6    -0.959699115176E+02    0.97903E-04   -0.82795E-04 34834   0.146E-01    0.518E-02
RMM:   7    -0.959699005052E+02    0.11012E-04   -0.10685E-04 43149   0.523E-02    0.391E-02
RMM:   8    -0.959698959117E+02    0.45935E-05   -0.21345E-05 37068   0.225E-02    0.212E-02
RMM:   9    -0.959698965241E+02   -0.61240E-06   -0.85500E-06 34914   0.165E-02
  44 F= -.95969897E+02 E0= -.95969897E+02  d E =-.579958E-02  mag=    -0.0000
       N       E                     dE             d eps       ncg     rms          rms(c)
DAV:   1    -0.955568428103E+02    0.41305E+00   -0.35051E+01 37728   0.659E+01    0.269E+00
RMM:   2    -0.959640444961E+02   -0.40720E+00   -0.41678E+00 43000   0.115E+01    0.142E+00
RMM:   3    -0.959780122546E+02   -0.13968E-01   -0.22694E-01 39468   0.221E+00    0.910E-01
RMM:   4    -0.959728380480E+02    0.51742E-02   -0.13442E-02 42050   0.586E-01    0.617E-01
RMM:   5    -0.959697334719E+02    0.31046E-02   -0.50475E-03 37286   0.353E-01    0.351E-01
RMM:   6    -0.959693887904E+02    0.34468E-03   -0.31898E-03 35087   0.285E-01    0.109E-01
RMM:   7    -0.959693379541E+02    0.50836E-04   -0.42602E-04 42995   0.106E-01    0.773E-02
RMM:   8    -0.959693204701E+02    0.17484E-04   -0.75011E-05 38438   0.423E-02    0.431E-02
RMM:   9    -0.959693224317E+02   -0.19616E-05   -0.33302E-05 37628   0.322E-02    0.131E-02
RMM:  10    -0.959693220012E+02    0.43044E-06   -0.44630E-06 30112   0.114E-02
  45 F= -.95969322E+02 E0= -.95969322E+02  d E =-.522506E-02  mag=     0.0000
       N       E                     dE             d eps       ncg     rms          rms(c)
DAV:   1    -0.958275840187E+02    0.14174E+00   -0.11829E+01 37568   0.381E+01    0.158E+00
RMM:   2    -0.959690017897E+02   -0.14142E+00   -0.14445E+00 42858   0.680E+00    0.889E-01
RMM:   3    -0.959736612074E+02   -0.46594E-02   -0.81806E-02 39554   0.133E+00    0.543E-01
RMM:   4    -0.959718176457E+02    0.18436E-02   -0.51625E-03 41448   0.365E-01    0.372E-01
RMM:   5    -0.959708317459E+02    0.98590E-03   -0.16979E-03 38992   0.205E-01    0.239E-01
RMM:   6    -0.959706095795E+02    0.22217E-03   -0.12273E-03 34660   0.178E-01    0.576E-02
RMM:   7    -0.959706043310E+02    0.52485E-05   -0.16739E-04 43481   0.632E-02    0.487E-02
RMM:   8    -0.959705986269E+02    0.57042E-05   -0.42670E-05 38494   0.310E-02    0.250E-02
RMM:   9    -0.959705990064E+02   -0.37956E-06   -0.89107E-06 36576   0.166E-02
  46 F= -.95970599E+02 E0= -.95970599E+02  d E =-.650206E-02  mag=     0.0000
       N       E                     dE             d eps       ncg     rms          rms(c)
DAV:   1    -0.959691377094E+02    0.14609E-02   -0.28096E-01 35296   0.499E+00    0.227E-01
RMM:   2    -0.959714790278E+02   -0.23413E-02   -0.25226E-02 42852   0.942E-01    0.122E-01
RMM:   3    -0.959715122440E+02   -0.33216E-04   -0.14725E-03 41177   0.186E-01    0.817E-02
RMM:   4    -0.959714652550E+02    0.46989E-04   -0.14520E-04 36448   0.626E-02    0.507E-02
RMM:   5    -0.959714438959E+02    0.21359E-04   -0.44359E-05 41418   0.325E-02    0.291E-02
RMM:   6    -0.959714415492E+02    0.23467E-05   -0.16824E-05 35290   0.199E-02    0.958E-03
RMM:   7    -0.959714414458E+02    0.10337E-06   -0.28865E-06 23720   0.920E-03
  47 F= -.95971441E+02 E0= -.95971441E+02  d E =-.842439E-03  mag=     0.0000
       N       E                     dE             d eps       ncg     rms          rms(c)
DAV:   1    -0.959529156509E+02    0.18526E-01   -0.25296E+00 35296   0.150E+01    0.676E-01
RMM:   2    -0.959740605854E+02   -0.21145E-01   -0.22709E-01 42852   0.283E+00    0.366E-01
RMM:   3    -0.959743185736E+02   -0.25799E-03   -0.13365E-02 41201   0.561E-01    0.249E-01
RMM:   4    -0.959738840981E+02    0.43448E-03   -0.13147E-03 36475   0.189E-01    0.153E-01
RMM:   5    -0.959736848478E+02    0.19925E-03   -0.40336E-04 41443   0.981E-02    0.870E-02
RMM:   6    -0.959736634321E+02    0.21416E-04   -0.15240E-04 36243   0.603E-02    0.272E-02
RMM:   7    -0.959736629691E+02    0.46302E-06   -0.26551E-05 41412   0.256E-02    0.217E-02
RMM:   8    -0.959736621047E+02    0.86434E-06   -0.88700E-06 32251   0.144E-02
  48 F= -.95973662E+02 E0= -.95973662E+02  d E =-.306310E-02  mag=     0.0000
       N       E                     dE             d eps       ncg     rms          rms(c)
DAV:   1    -0.958934666429E+02    0.80196E-01   -0.10118E+01 35296   0.300E+01    0.134E+00
RMM:   2    -0.959785564459E+02   -0.85090E-01   -0.91099E-01 42859   0.566E+00    0.737E-01
RMM:   3    -0.959793117162E+02   -0.75527E-03   -0.54204E-02 41087   0.113E+00    0.508E-01
RMM:   4    -0.959775120024E+02    0.17997E-02   -0.53407E-03 36529   0.380E-01    0.310E-01
RMM:   5    -0.959766828294E+02    0.82917E-03   -0.16127E-03 41376   0.196E-01    0.173E-01
RMM:   6    -0.959765922939E+02    0.90535E-04   -0.63635E-04 36435   0.123E-01    0.548E-02
RMM:   7    -0.959765893982E+02    0.28957E-05   -0.11312E-04 42384   0.530E-02    0.444E-02
RMM:   8    -0.959765850316E+02    0.43666E-05   -0.36490E-05 38042   0.286E-02    0.210E-02
RMM:   9    -0.959765854240E+02   -0.39238E-06   -0.63173E-06 34840   0.139E-02
  49 F= -.95976585E+02 E0= -.95976585E+02  d E =-.598642E-02  mag=    -0.0000
       N       E                     dE             d eps       ncg     rms          rms(c)
DAV:   1    -0.956402488804E+02    0.33634E+00   -0.40439E+01 35280   0.601E+01    0.267E+00
RMM:   2    -0.959867861024E+02   -0.34654E+00   -0.36870E+00 42918   0.114E+01    0.152E+00
RMM:   3    -0.959867754783E+02    0.10624E-04   -0.21786E-01 40875   0.230E+00    0.105E+00
RMM:   4    -0.959792794697E+02    0.74960E-02   -0.22034E-02 36699   0.778E-01    0.637E-01
RMM:   5    -0.959757511681E+02    0.35283E-02   -0.67445E-03 41146   0.402E-01    0.345E-01
RMM:   6    -0.959753546334E+02    0.39653E-03   -0.26982E-03 36694   0.254E-01    0.109E-01
RMM:   7    -0.959753373345E+02    0.17299E-04   -0.46864E-04 42839   0.108E-01    0.886E-02
RMM:   8    -0.959753190782E+02    0.18256E-04   -0.14679E-04 37846   0.573E-02    0.429E-02
RMM:   9    -0.959753200776E+02   -0.99937E-06   -0.28563E-05 40069   0.281E-02    0.148E-02
RMM:  10    -0.959753204394E+02   -0.36178E-06   -0.32998E-06 23641   0.981E-03
  50 F= -.95975320E+02 E0= -.95975320E+02  d E =-.472143E-02  mag=     0.0000
       N       E                     dE             d eps       ncg     rms          rms(c)
DAV:   1    -0.958298167684E+02    0.14550E+00   -0.17621E+01 35296   0.394E+01    0.183E+00
RMM:   2    -0.959779239760E+02   -0.14811E+00   -0.15970E+00 42718   0.751E+00    0.990E-01
RMM:   3    -0.959815213556E+02   -0.35974E-02   -0.93783E-02 41626   0.146E+00    0.621E-01
RMM:   4    -0.959787608709E+02    0.27605E-02   -0.83123E-03 36308   0.474E-01    0.397E-01
RMM:   5    -0.959775588876E+02    0.12020E-02   -0.31648E-03 41162   0.273E-01    0.254E-01
RMM:   6    -0.959773432374E+02    0.21565E-03   -0.11295E-03 35006   0.169E-01    0.726E-02
RMM:   7    -0.959773439746E+02   -0.73724E-06   -0.20609E-04 42798   0.694E-02    0.606E-02
RMM:   8    -0.959773351936E+02    0.87810E-05   -0.65734E-05 38531   0.385E-02    0.275E-02
RMM:   9    -0.959773347867E+02    0.40688E-06   -0.10957E-05 38488   0.170E-02    0.111E-02
RMM:  10    -0.959773347147E+02    0.71990E-07   -0.11409E-06 19953   0.630E-03
  51 F= -.95977335E+02 E0= -.95977335E+02  d E =-.673571E-02  mag=    -0.0000
       N       E                     dE             d eps       ncg     rms          rms(c)
DAV:   1    -0.959658753738E+02    0.11459E-01   -0.20567E+00 35248   0.121E+01    0.519E-01
RMM:   2    -0.959798038721E+02   -0.13928E-01   -0.14833E-01 42894   0.231E+00    0.282E-01
RMM:   3    -0.959799849356E+02   -0.18106E-03   -0.75512E-03 41366   0.430E-01    0.174E-01
RMM:   4    -0.959797445318E+02    0.24040E-03   -0.70290E-04 39669   0.131E-01    0.119E-01
RMM:   5    -0.959796233546E+02    0.12118E-03   -0.30517E-04 38840   0.841E-02    0.682E-02
RMM:   6    -0.959796114675E+02    0.11887E-04   -0.10271E-04 37569   0.489E-02    0.231E-02
RMM:   7    -0.959796103281E+02    0.11394E-05   -0.16921E-05 39032   0.201E-02    0.188E-02
RMM:   8    -0.959796094984E+02    0.82966E-06   -0.50262E-06 28005   0.117E-02
  52 F= -.95979609E+02 E0= -.95979609E+02  d E =-.227478E-02  mag=    -0.0000
       N       E                     dE             d eps       ncg     rms          rms(c)
DAV:   1    -0.958603569276E+02    0.11925E+00   -0.18500E+01 35216   0.363E+01    0.155E+00
RMM:   2    -0.959856458156E+02   -0.12529E+00   -0.13370E+00 42926   0.692E+00    0.819E-01
RMM:   3    -0.959874053428E+02   -0.17595E-02   -0.65466E-02 41641   0.125E+00    0.504E-01
RMM:   4    -0.959853356465E+02    0.20697E-02   -0.55961E-03 39888   0.367E-01    0.345E-01
RMM:   5    -0.959843797983E+02    0.95585E-03   -0.30409E-03 38213   0.263E-01    0.210E-01
RMM:   6    -0.959842455688E+02    0.13423E-03   -0.90988E-04 38862   0.149E-01    0.659E-02
RMM:   7    -0.959842376597E+02    0.79091E-05   -0.13252E-04 42621   0.551E-02    0.538E-02
RMM:   8    -0.959842321135E+02    0.55462E-05   -0.44973E-05 37726   0.327E-02    0.272E-02
RMM:   9    -0.959842332611E+02   -0.11476E-05   -0.10177E-05 36248   0.174E-02    0.782E-03
RMM:  10    -0.959842327685E+02    0.49254E-06   -0.12009E-06 19944   0.698E-03
  53 F= -.95984233E+02 E0= -.95984233E+02  d E =-.689805E-02  mag=     0.0000
       N       E                     dE             d eps       ncg     rms          rms(c)
DAV:   1    -0.954834813924E+02    0.50075E+00   -0.73867E+01 35216   0.727E+01    0.312E+00
RMM:   2    -0.959897917535E+02   -0.50631E+00   -0.54242E+00 42938   0.140E+01    0.161E+00
RMM:   3    -0.959970287320E+02   -0.72370E-02   -0.25478E-01 42629   0.246E+00    0.970E-01
RMM:   4    -0.959887653414E+02    0.82634E-02   -0.17342E-02 40491   0.629E-01    0.649E-01
RMM:   5    -0.959859357835E+02    0.28296E-02   -0.13424E-02 37081   0.547E-01    0.437E-01
RMM:   6    -0.959851771855E+02    0.75860E-03   -0.40416E-03 40554   0.321E-01    0.137E-01
RMM:   7    -0.959851251512E+02    0.52034E-04   -0.44572E-04 42507   0.102E-01    0.997E-02
RMM:   8    -0.959851111707E+02    0.13980E-04   -0.17137E-04 38425   0.630E-02    0.568E-02
RMM:   9    -0.959851145250E+02   -0.33543E-05   -0.48216E-05 37302   0.375E-02    0.160E-02
RMM:  10    -0.959851125588E+02    0.19662E-05   -0.66712E-06 36823   0.138E-02    0.112E-02
RMM:  11    -0.959851124487E+02    0.11003E-06   -0.92563E-07 19978   0.597E-03
  54 F= -.95985112E+02 E0= -.95985112E+02  d E =-.777773E-02  mag=     0.0000
       N       E                     dE             d eps       ncg     rms          rms(c)
DAV:   1    -0.958997432166E+02    0.85369E-01   -0.12806E+01 35344   0.302E+01    0.131E+00
RMM:   2    -0.959879931995E+02   -0.88250E-01   -0.93976E-01 42779   0.582E+00    0.774E-01
RMM:   3    -0.959885378837E+02   -0.54468E-03   -0.51558E-02 40644   0.114E+00    0.464E-01
RMM:   4    -0.959868498500E+02    0.16880E-02   -0.51144E-03 39465   0.360E-01    0.311E-01
RMM:   5    -0.959860056622E+02    0.84419E-03   -0.17601E-03 39515   0.203E-01    0.169E-01
RMM:   6    -0.959859287113E+02    0.76951E-04   -0.66685E-04 36504   0.123E-01    0.561E-02
RMM:   7    -0.959859254144E+02    0.32969E-05   -0.12062E-04 42669   0.520E-02    0.477E-02
RMM:   8    -0.959859209565E+02    0.44579E-05   -0.43683E-05 37618   0.309E-02    0.235E-02
RMM:   9    -0.959859209249E+02    0.31565E-07   -0.96092E-06 36040   0.160E-02
  55 F= -.95985921E+02 E0= -.95985921E+02  d E =-.858621E-02  mag=     0.0000
       N       E                     dE             d eps       ncg     rms          rms(c)
DAV:   1    -0.959897634730E+02   -0.38425E-02   -0.31422E-01 37656   0.630E+00    0.749E-01
RMM:   2    -0.959911629597E+02   -0.13995E-02   -0.72512E-02 42408   0.158E+00    0.629E-01
RMM:   3    -0.959877836678E+02    0.33793E-02   -0.17329E-02 39065   0.630E-01    0.250E-01
RMM:   4    -0.959871616770E+02    0.62199E-03   -0.21628E-03 35816   0.218E-01    0.130E-01
RMM:   5    -0.959870433320E+02    0.11835E-03   -0.32947E-04 35887   0.101E-01    0.434E-02
RMM:   6    -0.959870267586E+02    0.16573E-04   -0.61855E-05 36397   0.400E-02    0.260E-02
RMM:   7    -0.959870262609E+02    0.49768E-06   -0.24292E-05 38027   0.233E-02    0.207E-02
RMM:   8    -0.959870243048E+02    0.19561E-05   -0.66528E-06 31947   0.127E-02    0.591E-03
RMM:   9    -0.959870238574E+02    0.44740E-06   -0.11433E-06 19808   0.576E-03
  56 F= -.95987024E+02 E0= -.95987024E+02  d E =-.110293E-02  mag=     0.0000
       N       E                     dE             d eps       ncg     rms          rms(c)
DAV:   1    -0.959876633167E+02   -0.63901E-03   -0.58015E-02 37632   0.271E+00    0.322E-01
RMM:   2    -0.959879370361E+02   -0.27372E-03   -0.13476E-02 42388   0.682E-01    0.272E-01
RMM:   3    -0.959872988927E+02    0.63814E-03   -0.32057E-03 39073   0.271E-01    0.107E-01
RMM:   4    -0.959871857474E+02    0.11315E-03   -0.40078E-04 35981   0.935E-02    0.563E-02
RMM:   5    -0.959871638062E+02    0.21941E-04   -0.61544E-05 35836   0.439E-02    0.187E-02
RMM:   6    -0.959871608246E+02    0.29816E-05   -0.11514E-05 32612   0.173E-02    0.113E-02
RMM:   7    -0.959871606683E+02    0.15629E-06   -0.42987E-06 28374   0.102E-02
  57 F= -.95987161E+02 E0= -.95987161E+02  d E =-.123974E-02  mag=     0.0000
       N       E                     dE             d eps       ncg     rms          rms(c)
DAV:   1    -0.959871828706E+02   -0.22046E-04   -0.24369E-03 37624   0.556E-01    0.654E-02
RMM:   2    -0.959871932429E+02   -0.10372E-04   -0.54834E-04 42435   0.139E-01    0.539E-02
RMM:   3    -0.959871686567E+02    0.24586E-04   -0.13001E-04 39220   0.545E-02    0.221E-02
RMM:   4    -0.959871638427E+02    0.48141E-05   -0.16494E-05 34501   0.193E-02    0.112E-02
RMM:   5    -0.959871630038E+02    0.83886E-06   -0.18461E-06 20219   0.877E-03
  58 F= -.95987163E+02 E0= -.95987163E+02  d E =-.124208E-02  mag=     0.0000
       N       E                     dE             d eps       ncg     rms          rms(c)
DAV:   1    -0.959871669196E+02   -0.30769E-05   -0.47399E-04 38272   0.245E-01    0.283E-02
RMM:   2    -0.959871686927E+02   -0.17731E-05   -0.10708E-04 42386   0.610E-02    0.237E-02
RMM:   3    -0.959871637900E+02    0.49027E-05   -0.25521E-05 38749   0.241E-02    0.937E-03
RMM:   4    -0.959871628005E+02    0.98943E-06   -0.21836E-06 20042   0.835E-03
  59 F= -.95987163E+02 E0= -.95987163E+02  d E =-.124188E-02  mag=     0.0000
       N       E                     dE             d eps       ncg     rms          rms(c)
DAV:   1    -0.959864051059E+02    0.75868E-03   -0.55978E-02 44384   0.333E+00    0.157E-01
RMM:   2    -0.959874692585E+02   -0.10642E-02   -0.11363E-02 42910   0.621E-01    0.904E-02
RMM:   3    -0.959874900111E+02   -0.20753E-04   -0.60578E-04 37862   0.118E-01    0.561E-02
RMM:   4    -0.959874661371E+02    0.23874E-04   -0.53725E-05 40152   0.370E-02    0.398E-02
RMM:   5    -0.959874570942E+02    0.90429E-05   -0.48187E-05 36615   0.334E-02    0.271E-02
RMM:   6    -0.959874535827E+02    0.35115E-05   -0.12771E-05 39098   0.191E-02    0.669E-03
RMM:   7    -0.959874533699E+02    0.21278E-06   -0.10140E-06 19844   0.554E-03
  60 F= -.95987453E+02 E0= -.95987453E+02  d E =-.290569E-03  mag=     0.0000
