<?xml version="1.0" encoding="ISO-8859-1"?>
<modeling>
 <generator>
  <i name="program" type="string">vasp </i>
  <i name="version" type="string">5.4.4.18Apr17-6-g9f103f2a35  </i>
  <i name="subversion" type="string">(build Nov 08 2022 17:27:33) complex            parallel </i>
  <i name="platform" type="string">LinuxIFC </i>
  <i name="date" type="string">2022 11 22 </i>
  <i name="time" type="string">17:18:14 </i>
 </generator>
 <incar>
  <i type="string" name="PREC">accurate</i>
  <i type="string" name="ALGO"> Fast</i>
  <i type="int" name="ISPIN">     2</i>
  <i type="int" name="NELM">   100</i>
  <i type="int" name="IBRION">     2</i>
  <i name="EDIFF">      0.00000100</i>
  <i name="EDIFFG">     -0.03000000</i>
  <i type="int" name="NSW">   199</i>
  <i type="int" name="ISIF">     3</i>
  <i type="int" name="ISYM">     0</i>
  <i name="ENCUT">    520.00000000</i>
  <i name="ENAUG">   1040.00000000</i>
  <v name="MAGMOM">     -5.00000000      5.00000000      5.00000000     -5.00000000      0.00000000      0.00000000      0.00000000      0.00000000      0.00000000      0.00000000      0.00000000      0.00000000</v>
  <i type="string" name="LREAL"> Auto</i>
  <i type="int" name="ISMEAR">     0</i>
  <i name="SIGMA">      0.01000000</i>
  <i name="KSPACING">      0.22000000</i>
  <i type="int" name="LMAXMIX">     4</i>
  <i type="logical" name="LWAVE"> T  </i>
  <i type="int" name="LORBIT">    11</i>
  <i type="logical" name="LASPH"> T  </i>
  <v type="int" name="KPOINT_BSE">    -1     0     0     0</v>
  <i type="int" name="NELM">   100</i>
  <i type="string" name="GGA"> Pe</i>
  <i type="logical" name="LASPH"> T  </i>
 </incar>
 <structure name="primitive_cell" >
  <crystal>
   <varray name="basis" >
    <v>       2.91633100       0.00000000       0.00000000 </v>
    <v>      -0.00000100       4.58096600       0.00014500 </v>
    <v>       0.00000200       0.00030000       9.43439300 </v>
   </varray>
   <i name="volume">    126.03984071 </i>
   <varray name="rec_basis" >
    <v>       0.34289661       0.00000007      -0.00000007 </v>
    <v>       0.00000000       0.21829457      -0.00000694 </v>
    <v>       0.00000000      -0.00000336       0.10599516 </v>
   </varray>
  </crystal>
  <varray name="positions" >
   <v>       0.24999093       0.14552270      -0.14976354 </v>
   <v>       0.24998920       0.38335070      -0.29304569 </v>
   <v>      -0.24998267       0.26478365      -0.06488959 </v>
   <v>      -0.25000640      -0.11664962      -0.20697147 </v>
   <v>       0.25004692      -0.26480371       0.06487169 </v>
   <v>       0.24998694      -0.23517057      -0.43512351 </v>
   <v>      -0.25001917      -0.35448467      -0.35023726 </v>
   <v>       0.25001711       0.11662527       0.20697432 </v>
   <v>      -0.24997816      -0.14549998       0.14974829 </v>
   <v>      -0.25001823       0.23516750       0.43513157 </v>
   <v>       0.24997851       0.35446213       0.35024515 </v>
   <v>      -0.25000498      -0.38330240       0.29306105 </v>
  </varray>
 </structure>
 <varray name="primitive_index" >
  <v type="int" >        1 </v>
  <v type="int" >       10 </v>
  <v type="int" >        6 </v>
  <v type="int" >       12 </v>
  <v type="int" >        7 </v>
  <v type="int" >        5 </v>
  <v type="int" >        3 </v>
  <v type="int" >        9 </v>
  <v type="int" >        2 </v>
  <v type="int" >        8 </v>
  <v type="int" >        4 </v>
  <v type="int" >       11 </v>
 </varray>
 <kpoints>
  <generation param="Gamma">
   <v type="int" name="divisions">      10        7        4 </v>
   <v name="usershift">      0.00000000       0.00000000       0.00000000 </v>
   <v name="genvec1">      0.10000000       0.00000000       0.00000000 </v>
   <v name="genvec2">      0.00000000       0.14285714       0.00000000 </v>
   <v name="genvec3">      0.00000000       0.00000000       0.25000000 </v>
   <v name="shift">      0.00000000       0.00000000       0.00000000 </v>
  </generation>
  <varray name="kpointlist" >
   <v>       0.00000000       0.00000000       0.00000000 </v>
   <v>       0.10000000      -0.00000000       0.00000000 </v>
   <v>       0.20000000       0.00000000      -0.00000000 </v>
   <v>       0.30000000      -0.00000000       0.00000000 </v>
   <v>       0.40000000       0.00000000      -0.00000000 </v>
   <v>       0.50000000      -0.00000000      -0.00000000 </v>
   <v>       0.00000000       0.14285714       0.00000000 </v>
   <v>       0.10000000       0.14285714       0.00000000 </v>
   <v>       0.20000000       0.14285714       0.00000000 </v>
   <v>       0.30000000       0.14285714       0.00000000 </v>
   <v>       0.40000000       0.14285714       0.00000000 </v>
   <v>       0.50000000       0.14285714       0.00000000 </v>
   <v>      -0.40000000       0.14285714       0.00000000 </v>
   <v>      -0.30000000       0.14285714       0.00000000 </v>
   <v>      -0.20000000       0.14285714       0.00000000 </v>
   <v>      -0.10000000       0.14285714      -0.00000000 </v>
   <v>       0.00000000       0.28571429       0.00000000 </v>
   <v>       0.10000000       0.28571429      -0.00000000 </v>
   <v>       0.20000000       0.28571429       0.00000000 </v>
   <v>       0.30000000       0.28571429       0.00000000 </v>
   <v>       0.40000000       0.28571429       0.00000000 </v>
   <v>       0.50000000       0.28571429       0.00000000 </v>
   <v>      -0.40000000       0.28571429      -0.00000000 </v>
   <v>      -0.30000000       0.28571429       0.00000000 </v>
   <v>      -0.20000000       0.28571429      -0.00000000 </v>
   <v>      -0.10000000       0.28571429       0.00000000 </v>
   <v>       0.00000000       0.42857143       0.00000000 </v>
   <v>       0.10000000       0.42857143      -0.00000000 </v>
   <v>       0.20000000       0.42857143       0.00000000 </v>
   <v>       0.30000000       0.42857143       0.00000000 </v>
   <v>       0.40000000       0.42857143       0.00000000 </v>
   <v>       0.50000000       0.42857143       0.00000000 </v>
   <v>      -0.40000000       0.42857143      -0.00000000 </v>
   <v>      -0.30000000       0.42857143      -0.00000000 </v>
   <v>      -0.20000000       0.42857143      -0.00000000 </v>
   <v>      -0.10000000       0.42857143       0.00000000 </v>
   <v>       0.00000000       0.00000000       0.25000000 </v>
   <v>       0.10000000       0.00000000       0.25000000 </v>
   <v>       0.20000000       0.00000000       0.25000000 </v>
   <v>       0.30000000       0.00000000       0.25000000 </v>
   <v>       0.40000000      -0.00000000       0.25000000 </v>
   <v>       0.50000000       0.00000000       0.25000000 </v>
   <v>      -0.40000000       0.00000000       0.25000000 </v>
   <v>      -0.30000000       0.00000000       0.25000000 </v>
   <v>      -0.20000000       0.00000000       0.25000000 </v>
   <v>      -0.10000000       0.00000000       0.25000000 </v>
   <v>       0.00000000       0.14285714       0.25000000 </v>
   <v>       0.10000000       0.14285714       0.25000000 </v>
   <v>       0.20000000       0.14285714       0.25000000 </v>
   <v>       0.30000000       0.14285714       0.25000000 </v>
   <v>       0.40000000       0.14285714       0.25000000 </v>
   <v>       0.50000000       0.14285714       0.25000000 </v>
   <v>      -0.40000000       0.14285714       0.25000000 </v>
   <v>      -0.30000000       0.14285714       0.25000000 </v>
   <v>      -0.20000000       0.14285714       0.25000000 </v>
   <v>      -0.10000000       0.14285714       0.25000000 </v>
   <v>       0.00000000       0.28571429       0.25000000 </v>
   <v>       0.10000000       0.28571429       0.25000000 </v>
   <v>       0.20000000       0.28571429       0.25000000 </v>
   <v>       0.30000000       0.28571429       0.25000000 </v>
   <v>       0.40000000       0.28571429       0.25000000 </v>
   <v>       0.50000000       0.28571429       0.25000000 </v>
   <v>      -0.40000000       0.28571429       0.25000000 </v>
   <v>      -0.30000000       0.28571429       0.25000000 </v>
   <v>      -0.20000000       0.28571429       0.25000000 </v>
   <v>      -0.10000000       0.28571429       0.25000000 </v>
   <v>       0.00000000       0.42857143       0.25000000 </v>
   <v>       0.10000000       0.42857143       0.25000000 </v>
   <v>       0.20000000       0.42857143       0.25000000 </v>
   <v>       0.30000000       0.42857143       0.25000000 </v>
   <v>       0.40000000       0.42857143       0.25000000 </v>
   <v>       0.50000000       0.42857143       0.25000000 </v>
   <v>      -0.40000000       0.42857143       0.25000000 </v>
   <v>      -0.30000000       0.42857143       0.25000000 </v>
   <v>      -0.20000000       0.42857143       0.25000000 </v>
   <v>      -0.10000000       0.42857143       0.25000000 </v>
   <v>       0.00000000      -0.42857143       0.25000000 </v>
   <v>       0.10000000      -0.42857143       0.25000000 </v>
   <v>       0.20000000      -0.42857143       0.25000000 </v>
   <v>       0.30000000      -0.42857143       0.25000000 </v>
   <v>       0.40000000      -0.42857143       0.25000000 </v>
   <v>       0.50000000      -0.42857143       0.25000000 </v>
   <v>      -0.40000000      -0.42857143       0.25000000 </v>
   <v>      -0.30000000      -0.42857143       0.25000000 </v>
   <v>      -0.20000000      -0.42857143       0.25000000 </v>
   <v>      -0.10000000      -0.42857143       0.25000000 </v>
   <v>       0.00000000      -0.28571429       0.25000000 </v>
   <v>       0.10000000      -0.28571429       0.25000000 </v>
   <v>       0.20000000      -0.28571429       0.25000000 </v>
   <v>       0.30000000      -0.28571429       0.25000000 </v>
   <v>       0.40000000      -0.28571429       0.25000000 </v>
   <v>       0.50000000      -0.28571429       0.25000000 </v>
   <v>      -0.40000000      -0.28571429       0.25000000 </v>
   <v>      -0.30000000      -0.28571429       0.25000000 </v>
   <v>      -0.20000000      -0.28571429       0.25000000 </v>
   <v>      -0.10000000      -0.28571429       0.25000000 </v>
   <v>       0.00000000      -0.14285714       0.25000000 </v>
   <v>       0.10000000      -0.14285714       0.25000000 </v>
   <v>       0.20000000      -0.14285714       0.25000000 </v>
   <v>       0.30000000      -0.14285714       0.25000000 </v>
   <v>       0.40000000      -0.14285714       0.25000000 </v>
   <v>       0.50000000      -0.14285714       0.25000000 </v>
   <v>      -0.40000000      -0.14285714       0.25000000 </v>
   <v>      -0.30000000      -0.14285714       0.25000000 </v>
   <v>      -0.20000000      -0.14285714       0.25000000 </v>
   <v>      -0.10000000      -0.14285714       0.25000000 </v>
   <v>       0.00000000       0.00000000       0.50000000 </v>
   <v>       0.10000000       0.00000000       0.50000000 </v>
   <v>       0.20000000       0.00000000       0.50000000 </v>
   <v>       0.30000000       0.00000000       0.50000000 </v>
   <v>       0.40000000       0.00000000       0.50000000 </v>
   <v>       0.50000000       0.00000000       0.50000000 </v>
   <v>       0.00000000       0.14285714       0.50000000 </v>
   <v>       0.10000000       0.14285714       0.50000000 </v>
   <v>       0.20000000       0.14285714       0.50000000 </v>
   <v>       0.30000000       0.14285714       0.50000000 </v>
   <v>       0.40000000       0.14285714       0.50000000 </v>
   <v>       0.50000000       0.14285714       0.50000000 </v>
   <v>      -0.40000000       0.14285714       0.50000000 </v>
   <v>      -0.30000000       0.14285714       0.50000000 </v>
   <v>      -0.20000000       0.14285714       0.50000000 </v>
   <v>      -0.10000000       0.14285714       0.50000000 </v>
   <v>       0.00000000       0.28571429       0.50000000 </v>
   <v>       0.10000000       0.28571429       0.50000000 </v>
   <v>       0.20000000       0.28571429       0.50000000 </v>
   <v>       0.30000000       0.28571429       0.50000000 </v>
   <v>       0.40000000       0.28571429       0.50000000 </v>
   <v>       0.50000000       0.28571429       0.50000000 </v>
   <v>      -0.40000000       0.28571429       0.50000000 </v>
   <v>      -0.30000000       0.28571429       0.50000000 </v>
   <v>      -0.20000000       0.28571429       0.50000000 </v>
   <v>      -0.10000000       0.28571429       0.50000000 </v>
   <v>       0.00000000       0.42857143       0.50000000 </v>
   <v>       0.10000000       0.42857143       0.50000000 </v>
   <v>       0.20000000       0.42857143       0.50000000 </v>
   <v>       0.30000000       0.42857143       0.50000000 </v>
   <v>       0.40000000       0.42857143       0.50000000 </v>
   <v>       0.50000000       0.42857143       0.50000000 </v>
   <v>      -0.40000000       0.42857143       0.50000000 </v>
   <v>      -0.30000000       0.42857143       0.50000000 </v>
   <v>      -0.20000000       0.42857143       0.50000000 </v>
   <v>      -0.10000000       0.42857143       0.50000000 </v>
  </varray>
  <varray name="weights" >
   <v>       0.00357143 </v>
   <v>       0.00714286 </v>
   <v>       0.00714286 </v>
   <v>       0.00714286 </v>
   <v>       0.00714286 </v>
   <v>       0.00357143 </v>
   <v>       0.00714286 </v>
   <v>       0.00714286 </v>
   <v>       0.00714286 </v>
   <v>       0.00714286 </v>
   <v>       0.00714286 </v>
   <v>       0.00714286 </v>
   <v>       0.00714286 </v>
   <v>       0.00714286 </v>
   <v>       0.00714286 </v>
   <v>       0.00714286 </v>
   <v>       0.00714286 </v>
   <v>       0.00714286 </v>
   <v>       0.00714286 </v>
   <v>       0.00714286 </v>
   <v>       0.00714286 </v>
   <v>       0.00714286 </v>
   <v>       0.00714286 </v>
   <v>       0.00714286 </v>
   <v>       0.00714286 </v>
   <v>       0.00714286 </v>
   <v>       0.00714286 </v>
   <v>       0.00714286 </v>
   <v>       0.00714286 </v>
   <v>       0.00714286 </v>
   <v>       0.00714286 </v>
   <v>       0.00714286 </v>
   <v>       0.00714286 </v>
   <v>       0.00714286 </v>
   <v>       0.00714286 </v>
   <v>       0.00714286 </v>
   <v>       0.00714286 </v>
   <v>       0.00714286 </v>
   <v>       0.00714286 </v>
   <v>       0.00714286 </v>
   <v>       0.00714286 </v>
   <v>       0.00714286 </v>
   <v>       0.00714286 </v>
   <v>       0.00714286 </v>
   <v>       0.00714286 </v>
   <v>       0.00714286 </v>
   <v>       0.00714286 </v>
   <v>       0.00714286 </v>
   <v>       0.00714286 </v>
   <v>       0.00714286 </v>
   <v>       0.00714286 </v>
   <v>       0.00714286 </v>
   <v>       0.00714286 </v>
   <v>       0.00714286 </v>
   <v>       0.00714286 </v>
   <v>       0.00714286 </v>
   <v>       0.00714286 </v>
   <v>       0.00714286 </v>
   <v>       0.00714286 </v>
   <v>       0.00714286 </v>
   <v>       0.00714286 </v>
   <v>       0.00714286 </v>
   <v>       0.00714286 </v>
   <v>       0.00714286 </v>
   <v>       0.00714286 </v>
   <v>       0.00714286 </v>
   <v>       0.00714286 </v>
   <v>       0.00714286 </v>
   <v>       0.00714286 </v>
   <v>       0.00714286 </v>
   <v>       0.00714286 </v>
   <v>       0.00714286 </v>
   <v>       0.00714286 </v>
   <v>       0.00714286 </v>
   <v>       0.00714286 </v>
   <v>       0.00714286 </v>
   <v>       0.00714286 </v>
   <v>       0.00714286 </v>
   <v>       0.00714286 </v>
   <v>       0.00714286 </v>
   <v>       0.00714286 </v>
   <v>       0.00714286 </v>
   <v>       0.00714286 </v>
   <v>       0.00714286 </v>
   <v>       0.00714286 </v>
   <v>       0.00714286 </v>
   <v>       0.00714286 </v>
   <v>       0.00714286 </v>
   <v>       0.00714286 </v>
   <v>       0.00714286 </v>
   <v>       0.00714286 </v>
   <v>       0.00714286 </v>
   <v>       0.00714286 </v>
   <v>       0.00714286 </v>
   <v>       0.00714286 </v>
   <v>       0.00714286 </v>
   <v>       0.00714286 </v>
   <v>       0.00714286 </v>
   <v>       0.00714286 </v>
   <v>       0.00714286 </v>
   <v>       0.00714286 </v>
   <v>       0.00714286 </v>
   <v>       0.00714286 </v>
   <v>       0.00714286 </v>
   <v>       0.00714286 </v>
   <v>       0.00714286 </v>
   <v>       0.00357143 </v>
   <v>       0.00714286 </v>
   <v>       0.00714286 </v>
   <v>       0.00714286 </v>
   <v>       0.00714286 </v>
   <v>       0.00357143 </v>
   <v>       0.00714286 </v>
   <v>       0.00714286 </v>
   <v>       0.00714286 </v>
   <v>       0.00714286 </v>
   <v>       0.00714286 </v>
   <v>       0.00714286 </v>
   <v>       0.00714286 </v>
   <v>       0.00714286 </v>
   <v>       0.00714286 </v>
   <v>       0.00714286 </v>
   <v>       0.00714286 </v>
   <v>       0.00714286 </v>
   <v>       0.00714286 </v>
   <v>       0.00714286 </v>
   <v>       0.00714286 </v>
   <v>       0.00714286 </v>
   <v>       0.00714286 </v>
   <v>       0.00714286 </v>
   <v>       0.00714286 </v>
   <v>       0.00714286 </v>
   <v>       0.00714286 </v>
   <v>       0.00714286 </v>
   <v>       0.00714286 </v>
   <v>       0.00714286 </v>
   <v>       0.00714286 </v>
   <v>       0.00714286 </v>
   <v>       0.00714286 </v>
   <v>       0.00714286 </v>
   <v>       0.00714286 </v>
   <v>       0.00714286 </v>
  </varray>
 </kpoints>
 <parameters>
  <separator name="general" >
   <i type="string" name="SYSTEM">unknown system</i>
   <i type="logical" name="LCOMPAT"> F  </i>
  </separator>
  <separator name="electronic" >
   <i type="string" name="PREC">accura</i>
   <i name="ENMAX">    520.00000000</i>
   <i name="ENAUG">   1040.00000000</i>
   <i name="EDIFF">      0.00000100</i>
   <i type="int" name="IALGO">    68</i>
   <i type="int" name="IWAVPR">    11</i>
   <i type="int" name="NBANDS">    60</i>
   <i name="NELECT">    100.00000000</i>
   <i type="int" name="TURBO">     0</i>
   <i type="int" name="IRESTART">     0</i>
   <i type="int" name="NREBOOT">     0</i>
   <i type="int" name="NMIN">     0</i>
   <i name="EREF">      0.00000000</i>
   <separator name="electronic smearing" >
    <i type="int" name="ISMEAR">     0</i>
    <i name="SIGMA">      0.01000000</i>
    <i name="KSPACING">      0.22000000</i>
    <i type="logical" name="KGAMMA"> T  </i>
   </separator>
   <separator name="electronic projectors" >
    <i type="logical" name="LREAL"> T  </i>
    <v name="ROPT">     -0.00025000     -0.00025000</v>
    <i type="int" name="LMAXPAW">  -100</i>
    <i type="int" name="LMAXMIX">     4</i>
    <i type="logical" name="NLSPLINE"> F  </i>
   </separator>
   <separator name="electronic startup" >
    <i type="int" name="ISTART">     1</i>
    <i type="int" name="ICHARG">     0</i>
    <i type="int" name="INIWAV">     1</i>
   </separator>
   <separator name="electronic spin" >
    <i type="int" name="ISPIN">     2</i>
    <i type="logical" name="LNONCOLLINEAR"> F  </i>
    <v name="MAGMOM">     -5.00000000      5.00000000      5.00000000     -5.00000000      0.00000000      0.00000000      0.00000000      0.00000000      0.00000000      0.00000000      0.00000000      0.00000000</v>
    <i name="NUPDOWN">     -1.00000000</i>
    <i type="logical" name="LSORBIT"> F  </i>
    <v name="SAXIS">      0.00000000      0.00000000      1.00000000</v>
    <i type="logical" name="LSPIRAL"> F  </i>
    <v name="QSPIRAL">      0.00000000      0.00000000      0.00000000</v>
    <i type="logical" name="LZEROZ"> F  </i>
   </separator>
   <separator name="electronic exchange-correlation" >
    <i type="logical" name="LASPH"> T  </i>
    <i type="logical" name="LMETAGGA"> F  </i>
   </separator>
   <separator name="electronic convergence" >
    <i type="int" name="NELM">   100</i>
    <i type="int" name="NELMDL">     0</i>
    <i type="int" name="NELMIN">     2</i>
    <i name="ENINI">    520.00000000</i>
    <separator name="electronic convergence detail" >
     <i type="logical" name="LDIAG"> T  </i>
     <i type="logical" name="LSUBROT"> F  </i>
     <i name="WEIMIN">      0.00100000</i>
     <i name="EBREAK">      0.00000000</i>
     <i name="DEPER">      0.30000000</i>
     <i type="int" name="NRMM">     4</i>
     <i name="TIME">      0.40000000</i>
    </separator>
   </separator>
   <separator name="electronic mixer" >
    <i name="AMIX">      0.40000000</i>
    <i name="BMIX">      1.00000000</i>
    <i name="AMIN">      0.10000000</i>
    <i name="AMIX_MAG">      1.60000000</i>
    <i name="BMIX_MAG">      1.00000000</i>
    <separator name="electronic mixer details" >
     <i type="int" name="IMIX">     4</i>
     <i type="logical" name="MIXFIRST"> F  </i>
     <i type="int" name="MAXMIX">   -45</i>
     <i name="WC">    100.00000000</i>
     <i type="int" name="INIMIX">     1</i>
     <i type="int" name="MIXPRE">     1</i>
     <i type="int" name="MREMOVE">     5</i>
    </separator>
   </separator>
   <separator name="electronic dipolcorrection" >
    <i type="logical" name="LDIPOL"> F  </i>
    <i type="logical" name="LMONO"> F  </i>
    <i type="int" name="IDIPOL">     0</i>
    <i name="EPSILON">      1.00000000</i>
    <v name="DIPOL">   -100.00000000   -100.00000000   -100.00000000</v>
    <i name="EFIELD">      0.00000000</i>
   </separator>
  </separator>
  <separator name="grids" >
   <i type="int" name="NGX">    24</i>
   <i type="int" name="NGY">    36</i>
   <i type="int" name="NGZ">    70</i>
   <i type="int" name="NGXF">    48</i>
   <i type="int" name="NGYF">    72</i>
   <i type="int" name="NGZF">   140</i>
   <i type="logical" name="ADDGRID"> F  </i>
  </separator>
  <separator name="ionic" >
   <i type="int" name="NSW">   199</i>
   <i type="int" name="IBRION">     2</i>
   <i type="int" name="MDALGO">     0</i>
   <i type="int" name="ISIF">     3</i>
   <i name="PSTRESS">      0.00000000</i>
   <i name="EDIFFG">     -0.03000000</i>
   <i type="int" name="NFREE">     1</i>
   <i name="POTIM">      0.50000000</i>
   <i name="SMASS">     -3.00000000</i>
   <i name="SCALEE">      1.00000000</i>
  </separator>
  <separator name="ionic md" >
   <i name="TEBEG">      0.00010000</i>
   <i name="TEEND">      0.00010000</i>
   <i type="int" name="NBLOCK">     1</i>
   <i type="int" name="KBLOCK">   199</i>
   <i type="int" name="NPACO">   256</i>
   <i name="APACO">     16.00000000</i>
  </separator>
  <separator name="symmetry" >
   <i type="int" name="ISYM">     0</i>
   <i name="SYMPREC">      0.00001000</i>
  </separator>
  <separator name="dos" >
   <i type="int" name="LORBIT">    11</i>
   <v name="RWIGS">     -1.00000000     -1.00000000</v>
   <i type="int" name="NEDOS">   301</i>
   <i name="EMIN">     10.00000000</i>
   <i name="EMAX">    -10.00000000</i>
   <i name="EFERMI">      0.00000000</i>
  </separator>
  <separator name="writing" >
   <i type="int" name="NWRITE">     2</i>
   <i type="logical" name="LWAVE"> T  </i>
   <i type="logical" name="LDOWNSAMPLE"> F  </i>
   <i type="logical" name="LCHARG"> T  </i>
   <i type="logical" name="LPARD"> F  </i>
   <i type="logical" name="LVTOT"> F  </i>
   <i type="logical" name="LVHAR"> F  </i>
   <i type="logical" name="LELF"> F  </i>
   <i type="logical" name="LOPTICS"> F  </i>
   <v name="STM">      0.00000000      0.00000000      0.00000000      0.00000000      0.00000000      0.00000000      0.00000000</v>
  </separator>
  <separator name="performance" >
   <i type="int" name="NPAR">     4</i>
   <i type="int" name="NSIM">     4</i>
   <i type="int" name="NBLK">    -1</i>
   <i type="logical" name="LPLANE"> T  </i>
   <i type="logical" name="LSCALAPACK"> T  </i>
   <i type="logical" name="LSCAAWARE"> F  </i>
   <i type="logical" name="LSCALU"> F  </i>
   <i type="logical" name="LASYNC"> F  </i>
   <i type="logical" name="LORBITALREAL"> F  </i>
  </separator>
  <separator name="miscellaneous" >
   <i type="int" name="IDIOT">     3</i>
   <i type="int" name="ISPECIAL">     0</i>
   <i type="logical" name="LMUSIC"> F  </i>
   <v name="POMASS">     54.93800000     16.00000000</v>
   <v name="DARWINR">      0.00000000      0.00000000</v>
   <v name="DARWINV">      1.00000000      1.00000000</v>
   <i type="logical" name="LCORR"> T  </i>
  </separator>
  <i type="logical" name="GGA_COMPAT"> T  </i>
  <i type="logical" name="LBERRY"> F  </i>
  <i type="int" name="ICORELEVEL">     0</i>
  <i type="logical" name="LDAU"> F  </i>
  <i type="int" name="I_CONSTRAINED_M">     0</i>
  <separator name="electronic exchange-correlation" >
   <i type="string" name="GGA">PE</i>
   <i type="int" name="VOSKOWN">     0</i>
   <i type="logical" name="LHFCALC"> F  </i>
   <i type="string" name="PRECFOCK"></i>
   <i type="logical" name="LSYMGRAD"> F  </i>
   <i type="logical" name="LHFONE"> F  </i>
   <i type="logical" name="LRHFCALC"> F  </i>
   <i type="logical" name="LTHOMAS"> F  </i>
   <i type="logical" name="LMODELHF"> F  </i>
   <i name="ENCUT4O">     -1.00000000</i>
   <i type="int" name="EXXOEP">     0</i>
   <i type="int" name="FOURORBIT">     0</i>
   <i name="AEXX">      0.00000000</i>
   <i name="HFALPHA">      0.00000000</i>
   <i name="MCALPHA">      0.00000000</i>
   <i name="ALDAX">      1.00000000</i>
   <i name="AGGAX">      1.00000000</i>
   <i name="ALDAC">      1.00000000</i>
   <i name="AGGAC">      1.00000000</i>
   <i type="int" name="NKREDX">     1</i>
   <i type="int" name="NKREDY">     1</i>
   <i type="int" name="NKREDZ">     1</i>
   <i type="logical" name="SHIFTRED"> F  </i>
   <i type="logical" name="ODDONLY"> F  </i>
   <i type="logical" name="EVENONLY"> F  </i>
   <i type="int" name="LMAXFOCK">     0</i>
   <i type="int" name="NMAXFOCKAE">     0</i>
   <i type="logical" name="LFOCKAEDFT"> F  </i>
   <i name="HFSCREEN">      0.00000000</i>
   <i name="HFSCREENC">      0.00000000</i>
   <i type="int" name="NBANDSGWLOW">     0</i>
  </separator>
  <separator name="vdW DFT" >
   <i type="logical" name="LUSE_VDW"> F  </i>
   <i name="Zab_VDW">     -0.84910000</i>
   <i name="PARAM1">      0.12340000</i>
   <i name="PARAM2">      1.00000000</i>
   <i name="PARAM3">      0.00000000</i>
  </separator>
  <separator name="model GW" >
   <i type="int" name="MODEL_GW">     0</i>
   <i name="MODEL_EPS0">      6.30199204</i>
   <i name="MODEL_ALPHA">      1.00000000</i>
  </separator>
  <separator name="linear response parameters" >
   <i type="logical" name="LEPSILON"> F  </i>
   <i type="logical" name="LRPA"> F  </i>
   <i type="logical" name="LNABLA"> F  </i>
   <i type="logical" name="LVEL"> F  </i>
   <i type="int" name="KINTER">     0</i>
   <i name="CSHIFT">      0.10000000</i>
   <i name="OMEGAMAX">     -1.00000000</i>
   <i name="DEG_THRESHOLD">      0.00200000</i>
   <i name="RTIME">     -0.10000000</i>
   <i name="WPLASMAI">      0.00000000</i>
   <v name="DFIELD">      0.00000000      0.00000000      0.00000000</v>
   <v name="WPLASMA">      0.00000000      0.00000000      0.00000000      0.00000000      0.00000000      0.00000000      0.00000000      0.00000000      0.00000000</v>
  </separator>
  <separator name="orbital magnetization" >
   <i type="logical" name="NUCIND"> F  </i>
   <v name="MAGPOS">      0.00000000      0.00000000      0.00000000</v>
   <i type="logical" name="LNICSALL"> T  </i>
   <i type="logical" name="ORBITALMAG"> F  </i>
   <i type="logical" name="LMAGBLOCH"> F  </i>
   <i type="logical" name="LCHIMAG"> F  </i>
   <i type="logical" name="LGAUGE"> T  </i>
   <i type="int" name="MAGATOM">     0</i>
   <v name="MAGDIPOL">      0.00000000      0.00000000      0.00000000</v>
   <v name="AVECCONST">      0.00000000      0.00000000      0.00000000</v>
  </separator>
  <separator name="response functions" >
   <i type="logical" name="LADDER"> F  </i>
   <i type="logical" name="LRPAFORCE"> F  </i>
   <i type="logical" name="LFXC"> F  </i>
   <i type="logical" name="LHARTREE"> T  </i>
   <i type="int" name="IBSE">     0</i>
   <v type="int" name="KPOINT">    -1     0     0     0</v>
   <i type="logical" name="LTCTE"> F  </i>
   <i type="logical" name="LTETE"> F  </i>
   <i type="logical" name="LTRIPLET"> F  </i>
   <i type="logical" name="LFXCEPS"> F  </i>
   <i type="logical" name="LFXHEG"> F  </i>
   <i type="int" name="NATURALO">     2</i>
   <i type="logical" name="L2ORDER"> F  </i>
   <i type="logical" name="LMP2LT"> F  </i>
   <i type="logical" name="LUSEW"> F  </i>
   <i name="ENCUTGW">     -2.00000000</i>
   <i name="ENCUTGWSOFT">     -2.00000000</i>
   <i name="ENCUTLF">     -1.00000000</i>
   <i type="int" name="LMAXMP2">    -1</i>
   <i name="SCISSOR">      0.00000000</i>
   <i type="int" name="NOMEGA">     0</i>
   <i type="int" name="NOMEGAR">     0</i>
   <i type="int" name="NBANDSGW">    -1</i>
   <i type="int" name="NBANDSO">    -1</i>
   <i type="int" name="NBANDSV">    -1</i>
   <i type="int" name="NELM">   100</i>
   <i type="int" name="NELMHF">     1</i>
   <i type="int" name="DIM">     3</i>
   <i type="int" name="ANTIRES">     0</i>
   <i name="OMEGAMAX">    -30.00000000</i>
   <i name="OMEGAMIN">    -30.00000000</i>
   <i name="OMEGATL">   -200.00000000</i>
   <i type="int" name="OMEGAGRID">   140</i>
   <i name="CSHIFT">     -0.10000000</i>
   <i type="logical" name="SELFENERGY"> F  </i>
   <i type="logical" name="LSPECTRAL"> F  </i>
   <i type="logical" name="LSPECTRALGW"> F  </i>
   <i type="logical" name="LSINGLES"> F  </i>
   <i type="logical" name="LFERMIGW"> F  </i>
   <i type="logical" name="ODDONLYGW"> F  </i>
   <i type="logical" name="EVENONLYGW"> F  </i>
   <i type="int" name="NKREDLFX">     1</i>
   <i type="int" name="NKREDLFY">     1</i>
   <i type="int" name="NKREDLFZ">     1</i>
   <i type="int" name="MAXMEM">  2800</i>
   <i type="int" name="TELESCOPE">     0</i>
   <i type="int" name="TAUPAR">     1</i>
   <i type="int" name="OMEGAPAR">    -1</i>
   <i name="LAMBDA">      1.00000000</i>
  </separator>
  <separator name="External order field" >
   <i name="OFIELD_KAPPA">      0.00000000</i>
   <v name="OFIELD_K">      0.00000000      0.00000000      0.00000000</v>
   <i name="OFIELD_Q6_NEAR">      0.00000000</i>
   <i name="OFIELD_Q6_FAR">      0.00000000</i>
   <i name="OFIELD_A">      0.00000000</i>
  </separator>
 </parameters>
 <atominfo>
  <atoms>      12 </atoms>
  <types>       2 </types>
  <array name="atoms" >
   <dimension dim="1">ion</dimension>
   <field type="string">element</field>
   <field type="int">atomtype</field>
   <set>
    <rc><c>Mn</c><c>   1</c></rc>
    <rc><c>Mn</c><c>   1</c></rc>
    <rc><c>Mn</c><c>   1</c></rc>
    <rc><c>Mn</c><c>   1</c></rc>
    <rc><c>O </c><c>   2</c></rc>
    <rc><c>O </c><c>   2</c></rc>
    <rc><c>O </c><c>   2</c></rc>
    <rc><c>O </c><c>   2</c></rc>
    <rc><c>O </c><c>   2</c></rc>
    <rc><c>O </c><c>   2</c></rc>
    <rc><c>O </c><c>   2</c></rc>
    <rc><c>O </c><c>   2</c></rc>
   </set>
  </array>
  <array name="atomtypes" >
   <dimension dim="1">type</dimension>
   <field type="int">atomspertype</field>
   <field type="string">element</field>
   <field>mass</field>
   <field>valence</field>
   <field type="string">pseudopotential</field>
   <set>
    <rc><c>   4</c><c>Mn</c><c>     54.93800000</c><c>     13.00000000</c><c>  PAW_PBE Mn_pv 02Aug2007               </c></rc>
    <rc><c>   8</c><c>O </c><c>     16.00000000</c><c>      6.00000000</c><c>  PAW_PBE O 08Apr2002                   </c></rc>
   </set>
  </array>
 </atominfo>
 <structure name="initialpos" >
  <crystal>
   <varray name="basis" >
    <v>       2.91633100       0.00000000       0.00000000 </v>
    <v>      -0.00000100       4.58096600       0.00014500 </v>
    <v>       0.00000200       0.00030000       9.43439300 </v>
   </varray>
   <i name="volume">    126.03984071 </i>
   <varray name="rec_basis" >
    <v>       0.34289661       0.00000007      -0.00000007 </v>
    <v>       0.00000000       0.21829457      -0.00000694 </v>
    <v>       0.00000000      -0.00000336       0.10599516 </v>
   </varray>
  </crystal>
  <varray name="positions" >
   <v>       0.24999093       0.14552270       0.85023646 </v>
   <v>       0.75002184       0.85450002       0.14974829 </v>
   <v>       0.74998083       0.64551533       0.64976274 </v>
   <v>       0.24997851       0.35446213       0.35024515 </v>
   <v>       0.24998694       0.76482943       0.56487649 </v>
   <v>       0.75001733       0.26478365       0.93511041 </v>
   <v>       0.25004692       0.73519629       0.06487169 </v>
   <v>       0.74998177       0.23516750       0.43513157 </v>
   <v>       0.25001711       0.11662527       0.20697432 </v>
   <v>       0.24998920       0.38335070       0.70695431 </v>
   <v>       0.74999502       0.61669760       0.29306105 </v>
   <v>       0.74999360       0.88335038       0.79302853 </v>
  </varray>
 </structure>
 <calculation>
  <scstep>
   <time name="dav">   22.61   22.62</time>
   <time name="total">   23.73   23.75</time>
   <energy>
    <i name="alphaZ">    441.37612112 </i>
    <i name="ewald">  -7458.97165523 </i>
    <i name="hartreedc">  -3600.44465714 </i>
    <i name="XCdc">    498.69922974 </i>
    <i name="pawpsdc">  14951.91073595 </i>
    <i name="pawaedc"> -15190.71075957 </i>
    <i name="eentropy">     -0.00011462 </i>
    <i name="bandstr">  -1265.62628834 </i>
    <i name="atom">  11559.90638050 </i>
    <i name="e_fr_energy">    -63.86100760 </i>
    <i name="e_wo_entrp">    -63.86089297 </i>
    <i name="e_0_energy">    -63.86095029 </i>
   </energy>
  </scstep>
  <scstep>
   <time name="diag">    2.29    2.30</time>
   <time name="diis">    9.79    9.81</time>
   <time name="orth">    0.55    0.55</time>
   <time name="total">   13.65   13.69</time>
   <energy>
    <i name="e_fr_energy">   -100.13560254 </i>
    <i name="e_wo_entrp">   -100.13553403 </i>
    <i name="e_0_energy">   -100.13556828 </i>
   </energy>
  </scstep>
  <scstep>
   <time name="diag">    3.48    3.53</time>
   <time name="diis">   12.08   12.11</time>
   <time name="orth">    0.85    0.85</time>
   <time name="total">   17.60   17.68</time>
   <energy>
    <i name="e_fr_energy">    -91.99873329 </i>
    <i name="e_wo_entrp">    -91.99873329 </i>
    <i name="e_0_energy">    -91.99873329 </i>
   </energy>
  </scstep>
  <scstep>
   <time name="diag">    2.55    2.55</time>
   <time name="diis">   10.05   10.08</time>
   <time name="orth">    0.39    0.39</time>
   <time name="total">   13.93   13.98</time>
   <energy>
    <i name="e_fr_energy">    -92.52968911 </i>
    <i name="e_wo_entrp">    -92.52962338 </i>
    <i name="e_0_energy">    -92.52965625 </i>
   </energy>
  </scstep>
  <scstep>
   <time name="diag">    2.20    2.20</time>
   <time name="diis">    8.90    8.93</time>
   <time name="orth">    0.35    0.36</time>
   <time name="total">   12.36   12.39</time>
   <energy>
    <i name="e_fr_energy">    -92.36954388 </i>
    <i name="e_wo_entrp">    -92.36908188 </i>
    <i name="e_0_energy">    -92.36931288 </i>
   </energy>
  </scstep>
  <scstep>
   <time name="diag">    2.16    2.17</time>
   <time name="diis">    8.87    8.90</time>
   <time name="orth">    0.38    0.38</time>
   <time name="total">   12.33   12.38</time>
   <energy>
    <i name="e_fr_energy">    -91.96020114 </i>
    <i name="e_wo_entrp">    -91.96020114 </i>
    <i name="e_0_energy">    -91.96020114 </i>
   </energy>
  </scstep>
  <scstep>
   <time name="diag">    2.41    2.41</time>
   <time name="diis">   10.04   10.06</time>
   <time name="orth">    0.37    0.37</time>
   <time name="total">   13.76   13.80</time>
   <energy>
    <i name="e_fr_energy">    -91.93105803 </i>
    <i name="e_wo_entrp">    -91.93105803 </i>
    <i name="e_0_energy">    -91.93105803 </i>
   </energy>
  </scstep>
  <scstep>
   <time name="diag">    2.21    2.22</time>
   <time name="diis">    8.76    8.79</time>
   <time name="orth">    0.37    0.37</time>
   <time name="total">   12.24   12.29</time>
   <energy>
    <i name="e_fr_energy">    -91.93097581 </i>
    <i name="e_wo_entrp">    -91.93097581 </i>
    <i name="e_0_energy">    -91.93097581 </i>
   </energy>
  </scstep>
  <scstep>
   <time name="diag">    2.23    2.24</time>
   <time name="diis">    8.53    8.55</time>
   <time name="orth">    0.36    0.36</time>
   <time name="total">   12.02   12.05</time>
   <energy>
    <i name="e_fr_energy">    -91.92903351 </i>
    <i name="e_wo_entrp">    -91.92903351 </i>
    <i name="e_0_energy">    -91.92903351 </i>
   </energy>
  </scstep>
  <scstep>
   <time name="diag">    2.16    2.16</time>
   <time name="diis">    9.32    9.32</time>
   <time name="orth">    0.45    0.46</time>
   <time name="total">   12.89   12.91</time>
   <energy>
    <i name="e_fr_energy">    -91.92850872 </i>
    <i name="e_wo_entrp">    -91.92850872 </i>
    <i name="e_0_energy">    -91.92850872 </i>
   </energy>
  </scstep>
  <scstep>
   <time name="diag">    2.39    2.40</time>
