unknown system                          
           1
     2.916331    0.000000    0.000000
    -0.000001    4.580966    0.000145
     0.000002    0.000300    9.434393
   Mn   O 
   4   8
Direct configuration=     1
   0.24999093  0.14552270  0.85023646
   0.75002184  0.85450002  0.14974829
   0.74998083  0.64551533  0.64976274
   0.24997851  0.35446213  0.35024515
   0.24998694  0.76482943  0.56487649
   0.75001733  0.26478365  0.93511041
   0.25004692  0.73519629  0.06487169
   0.74998177  0.23516750  0.43513157
   0.25001711  0.11662527  0.20697432
   0.24998920  0.38335070  0.70695431
   0.74999502  0.61669760  0.29306105
   0.74999360  0.88335038  0.79302853
