unknown system                          
           1
     2.916331    0.000000    0.000000
    -0.000001    4.580966    0.000145
     0.000002    0.000300    9.434393
   Mn   O 
   4   8
Direct configuration=     1
   0.24999093  0.14552270  0.85023646
   0.75002184  0.85450002  0.14974829
   0.74998083  0.64551533  0.64976274
   0.24997851  0.35446213  0.35024515
   0.24998694  0.76482943  0.56487649
   0.75001733  0.26478365  0.93511041
   0.25004692  0.73519629  0.06487169
   0.74998177  0.23516750  0.43513157
   0.25001711  0.11662527  0.20697432
   0.24998920  0.38335070  0.70695431
   0.74999502  0.61669760  0.29306105
   0.74999360  0.88335038  0.79302853
unknown system                          
           1
     2.987042    0.000010    0.000011
     0.000014    4.802109    0.000200
     0.000039    0.000408   10.036006
   Mn   O 
   4   8
Direct configuration=     2
   0.25001054  0.12079550  0.84730928
   0.75003244  0.87917134  0.15268351
   0.74999030  0.62084388  0.65267158
   0.24998479  0.37916638  0.34732240
   0.24998363  0.78374110  0.55185705
   0.74999969  0.28371185  0.94814818
   0.25002326  0.71628095  0.05184665
   0.74997852  0.21625967  0.44815154
   0.25001524  0.11657271  0.20813898
   0.24998987  0.38341612  0.70812340
   0.74999617  0.61661939  0.29188311
   0.74999556  0.88342211  0.79186531
unknown system                          
           1
     2.948132    0.000004    0.000005
     0.000006    4.680420    0.000170
     0.000019    0.000349    9.704956
   Mn   O 
   4   8
Direct configuration=     3
   0.24999992  0.13377554  0.84882341
   0.75002683  0.86622063  0.15116523
   0.74998517  0.63379471  0.65116682
   0.24998146  0.36619833  0.34883436
   0.24998537  0.77381366  0.55859186
   0.75000930  0.27377598  0.94140398
   0.25003584  0.72621007  0.05858427
   0.74998030  0.22618510  0.44141645
   0.25001625  0.11660032  0.20753652
   0.24998952  0.38338179  0.70751864
   0.74999555  0.61666043  0.29249244
   0.74999450  0.88338444  0.79246703
unknown system                          
           1
     2.947116    0.000004    0.000005
     0.000006    4.677245    0.000169
     0.000018    0.000347    9.696317
   Mn   O 
   4   8
Direct configuration=     4
   0.24999964  0.13412305  0.84886426
   0.75002668  0.86587390  0.15112426
   0.74998503  0.63414144  0.65112621
   0.24998137  0.36585114  0.34887516
   0.24998542  0.77354788  0.55877360
   0.75000955  0.27350997  0.94122199
   0.25003618  0.72647590  0.05876608
   0.74998035  0.22645083  0.44123471
   0.25001628  0.11660105  0.20752026
   0.24998951  0.38338087  0.70750232
   0.74999553  0.61666153  0.29250888
   0.74999447  0.88338344  0.79248327
unknown system                          
           1
     2.836453    0.000004    0.000010
     0.000005    4.703638    0.000152
     0.000034    0.000310    9.803527
   Mn   O 
   4   8
Direct configuration=     5
   0.25000364  0.12635738  0.85061817
   0.75002899  0.87362870  0.14937498
   0.74998692  0.62639305  0.64937416
   0.24998430  0.37361108  0.35062474
   0.24998639  0.77457852  0.55610976
   0.75000240  0.27453792  0.94388644
   0.25002607  0.72545391  0.05610728
   0.74998418  0.22542697  0.44389492
   0.25001410  0.11751711  0.21066197
   0.24999032  0.38247403  0.71064706
   0.74999606  0.61754753  0.28936164
   0.74999662  0.88247478  0.78933987
unknown system                          
           1
     2.807727    0.000004    0.000011
     0.000005    4.710489    0.000148
     0.000038    0.000301    9.831356
   Mn   O 
   4   8
Direct configuration=     6
   0.25000472  0.12435288  0.85106847
   0.75002962  0.87563039  0.14892587
   0.74998743  0.62439301  0.64892433
   0.24998509  0.37561410  0.35107393
   0.24998666  0.77484455  0.55542585
   0.75000046  0.27480327  0.94457052
   0.25002335  0.72519011  0.05542466
   0.74998521  0.22516270  0.44457791
   0.25001350  0.11775357  0.21146858
   0.24999054  0.38223996  0.71145445
   0.74999621  0.61777623  0.28855361
   0.74999720  0.88224022  0.78853283
unknown system                          
           1
     2.796696   -0.000004    0.000012
    -0.000008    4.686561    0.000161
     0.000039    0.000327    9.838760
   Mn   O 
   4   8
Direct configuration=     7
   0.25000238  0.12299440  0.85191818
   0.75002383  0.87700350  0.14808205
   0.74998803  0.62302019  0.64808014
   0.24999009  0.37697899  0.35191995
   0.24998984  0.77049694  0.55353907
   0.74999770  0.27044044  0.94645631
   0.25002906  0.72954819  0.05354020
   0.74998885  0.22951574  0.44646148
   0.25001736  0.12262249  0.21595918
   0.24998137  0.37737525  0.71594670
   0.74999646  0.62263234  0.28405827
   0.74999502  0.87737253  0.78403948
unknown system                          
           1
     2.789980   -0.000009    0.000012
    -0.000016    4.671992    0.000169
     0.000040    0.000343    9.843268
   Mn   O 
   4   8
Direct configuration=     8
   0.25000095  0.12216306  0.85243514
   0.75002030  0.87784379  0.14756867
   0.74998840  0.62218008  0.64756654
   0.24999314  0.37781425  0.35243466
   0.24999178  0.76783638  0.55239118
   0.74999600  0.26777056  0.94760362
   0.25003257  0.73221516  0.05239370
   0.74999109  0.23217962  0.44760743
   0.25001973  0.12560206  0.21869123
   0.24997575  0.37439823  0.71867975
   0.74999663  0.62560410  0.28132333
   0.74999368  0.87439372  0.78130576
unknown system                          
           1
     2.797331   -0.000010    0.000014
    -0.000018    4.654751    0.000179
     0.000046    0.000362    9.866852
   Mn   O 
   4   8
Direct configuration=     9
   0.24999814  0.11810167  0.85341906
   0.75001892  0.88190631  0.14658349
   0.74998788  0.61812279  0.64658082
   0.24999661  0.38187327  0.35341983
   0.24999391  0.76348737  0.55070761
   0.74999552  0.26342187  0.94929042
   0.25003142  0.73656523  0.05071059
   0.74999328  0.23652620  0.44929094
   0.25002055  0.12647732  0.22060575
   0.24997371  0.37352284  0.72059768
   0.74999729  0.62647427  0.27940381
   0.74999277  0.87352189  0.77939101
unknown system                          
           1
     2.819385   -0.000012    0.000019
    -0.000023    4.603029    0.000209
     0.000064    0.000419    9.937601
   Mn   O 
   4   8
Direct configuration=    10
   0.24998971  0.10587235  0.85636378
   0.75001481  0.89413903  0.14363500
   0.74998633  0.60590584  0.64363075
   0.25000698  0.39409543  0.35636827
   0.25000032  0.75039200  0.54566897
   0.74999406  0.25032743  0.95433876
   0.25002800  0.74966379  0.04567333
   0.74999983  0.24961422  0.45432938
   0.25002301  0.12911280  0.22633557
   0.24996759  0.37088690  0.72633771
   0.74999928  0.62909448  0.27365899
   0.74999008  0.87089672  0.77366048
unknown system                          
           1
     2.863491   -0.000018    0.000029
    -0.000033    4.499584    0.000269
     0.000100    0.000532   10.079101
   Mn   O 
   4   8
Direct configuration=    11
   0.24997290  0.08113882  0.86221137
   0.75000673  0.91887944  0.13777993
   0.74998324  0.58119747  0.63777269
   0.25002758  0.41881436  0.36222309
   0.25001304  0.72390710  0.53566353
   0.74999105  0.22384417  0.96436364
   0.25002134  0.77615541  0.03567045
   0.75001283  0.27608427  0.46433443
   0.25002782  0.13444285  0.23771361
   0.24995538  0.36555566  0.73773606
   0.75000330  0.63439392  0.26225115
   0.74998481  0.86558753  0.76228104
unknown system                          
           1
     2.865104   -0.000018    0.000029
    -0.000033    4.490464    0.000268
     0.000102    0.000529   10.068504
   Mn   O 
   4   8
Direct configuration=    12
   0.24997179  0.07862633  0.86271100
   0.75000623  0.92139249  0.13728041
   0.74998315  0.57868678  0.63727389
   0.25002913  0.42132549  0.36272149
   0.25001375  0.72158874  0.53486021
   0.74999071  0.22152592  0.96516783
   0.25002049  0.77847375  0.03486730
   0.75001390  0.27840159  0.46513780
   0.25002796  0.13454255  0.23841037
   0.24995474  0.36545747  0.73843351
   0.75000381  0.63449075  0.26155293
   0.74998435  0.86548914  0.76158426
unknown system                          
           1
     2.869940   -0.000019    0.000030
    -0.000035    4.463105    0.000264
     0.000106    0.000518   10.036712
   Mn   O 
   4   8
Direct configuration=    13
   0.24996845  0.07107354  0.86421145
   0.75000475  0.92894694  0.13578029
   0.74998290  0.57113941  0.63577590
   0.25003376  0.42887419  0.36421825
   0.25001588  0.71461955  0.53244771
   0.74998969  0.21455705  0.96758294
   0.25001794  0.78544288  0.03245532
   0.75001710  0.28536766  0.46755045
   0.25002841  0.13484227  0.24050283
   0.24995282  0.36516229  0.74052807
   0.75000534  0.63478183  0.25945606
   0.74998297  0.86519338  0.75949173
unknown system                          
           1
     2.879613   -0.000021    0.000032
    -0.000038    4.408386    0.000255
     0.000114    0.000497    9.973130
   Mn   O 
   4   8
Direct configuration=    14
   0.24996178  0.05587537  0.86722186
   0.75000181  0.94414847  0.13277055
   0.74998240  0.55595212  0.63277042
   0.25004302  0.44406414  0.36722125
   0.25002012  0.70059572  0.52760741
   0.74998764  0.20053389  0.97242845
   0.25001287  0.79946660  0.02761609
   0.75002349  0.29938522  0.47239104
   0.25002928  0.13544538  0.24470102
   0.24994899  0.36456832  0.74473046
   0.75000839  0.63536756  0.25524904
   0.74998021  0.86459822  0.75529340
unknown system                          
           1
     2.873353   -0.000020    0.000031
    -0.000036    4.443800    0.000261
     0.000109    0.000511   10.014280
   Mn   O 
   4   8
Direct configuration=    15
   0.24996610  0.06583366  0.86526112
   0.75000369  0.93418798  0.13473086
   0.74998273  0.56590330  0.63472796
   0.25003704  0.43411122  0.36526532
   0.25001738  0.70978457  0.53076001
   0.74998898  0.20972227  0.96927246
   0.25001612  0.79027785  0.03076799
   0.75001937  0.29020048  0.46923825
   0.25002872  0.13505019  0.24196665
   0.24995147  0.36495750  0.74199335
   0.75000641  0.63498378  0.25798917
   0.74998198  0.86498819  0.75802787
unknown system                          
           1
     2.870321   -0.000019    0.000030
    -0.000035    4.444927    0.000246
     0.000105    0.000480    9.967581
   Mn   O 
   4   8
Direct configuration=    16
   0.24996670  0.06484377  0.86521883
   0.75000383  0.93517768  0.13477482
   0.74998319  0.56491117  0.63477288
   0.25003693  0.43510196  0.36522007
   0.25001681  0.70976030  0.53068493
   0.74998881  0.20969936  0.96934551
   0.25001537  0.79030026  0.03069319
   0.75001906  0.29022594  0.46931355
   0.25002861  0.13445057  0.24153700
   0.24995206  0.36555952  0.74156211
   0.75000679  0.63438329  0.25842028
   0.74998185  0.86558718  0.75845784
unknown system                          
           1
     2.861225   -0.000018    0.000026
    -0.000033    4.448310    0.000201
     0.000093    0.000388    9.827482
   Mn   O 
   4   8
Direct configuration=    17
   0.24996851  0.06187484  0.86509138
   0.75000426  0.93814604  0.13490732
   0.74998456  0.56193554  0.63490826
   0.25003660  0.43807340  0.36508367
   0.25001508  0.70968752  0.53045863
   0.74998827  0.20963065  0.96956569
   0.25001312  0.79036745  0.03046775
   0.75001815  0.29030229  0.46954050
   0.25002828  0.13265215  0.24024200
   0.24995380  0.36736514  0.74026233
   0.75000792  0.63258229  0.25971966
   0.74998146  0.86738369  0.75975380
unknown system                          
           1
     2.843035   -0.000015    0.000019
    -0.000028    4.455075    0.000112
     0.000071    0.000205    9.547285
   Mn   O 
   4   8
Direct configuration=    18
   0.24997214  0.05594151  0.86483281
   0.75000511  0.94407824  0.13517613
   0.74998732  0.55598881  0.63518285
   0.25003592  0.44401177  0.36480702
   0.25001160  0.70954206  0.52999959
   0.74998720  0.20949333  0.97001233
   0.25000861  0.79050173  0.03001044
   0.75001631  0.29045488  0.47000088
   0.25002760  0.12905800  0.23761508
   0.24995730  0.37097357  0.73762573
   0.75001020  0.62898307  0.26235546
   0.74998069  0.87097403  0.76238268
unknown system                          
           1
     2.834345   -0.000014    0.000016
    -0.000026    4.458306    0.000070
     0.000060    0.000117    9.413442
   Mn   O 
   4   8
Direct configuration=    19
   0.24997389  0.05311158  0.86470565
   0.75000551  0.94690762  0.13530833
   0.74998866  0.55315252  0.63531784
   0.25003559  0.44684408  0.36467102
   0.25000993  0.70947268  0.52977388
   0.74998668  0.20942784  0.97023195
   0.25000644  0.79056577  0.02978558
   0.75001543  0.29052767  0.47022724
   0.25002726  0.12734372  0.23632342
   0.24995896  0.37269456  0.73632934
   0.75001131  0.62726646  0.26365145
   0.74998032  0.87268650  0.76367531
unknown system                          
           1
     2.850867   -0.000013    0.000012
    -0.000025    4.489217    0.000057
     0.000048    0.000091    9.360416
   Mn   O 
   4   8
Direct configuration=    20
   0.24997629  0.05183040  0.86444979
   0.75000665  0.94818372  0.13556345
   0.74998919  0.55186090  0.63556646
   0.25003094  0.44813498  0.36442517
   0.25000748  0.71141449  0.52892546
   0.74998639  0.21138305  0.97107620
   0.25000622  0.78861351  0.02893846
   0.75001447  0.28858799  0.47107411
   0.25002435  0.12753642  0.23549306
   0.24996372  0.37249438  0.73549976
   0.75001413  0.62747295  0.26448223
   0.74998016  0.87248822  0.76450685
unknown system                          
           1
     2.893972   -0.000012    0.000002
    -0.000023    4.569860    0.000023
     0.000017    0.000024    9.222078
   Mn   O 
   4   8
Direct configuration=    21
   0.24998250  0.04851091  0.86377849
   0.75000959  0.95149007  0.13623284
   0.74999056  0.54851439  0.63621877
   0.25001888  0.45147964  0.36378015
   0.25000112  0.71644562  0.52669947
   0.74998564  0.21644890  0.97329126
   0.25000565  0.78355528  0.02671589
   0.75001200  0.28356237  0.47329602
   0.25001678  0.12803568  0.23331446
   0.24997606  0.37197569  0.73332319
   0.75002146  0.62800797  0.26666193
   0.74997976  0.87197448  0.76668854
unknown system                          
           1
     2.889510   -0.000012    0.000003
    -0.000023    4.561513    0.000026
     0.000020    0.000031    9.236397
   Mn   O 
   4   8
Direct configuration=    22
   0.24998187  0.04884843  0.86384902
   0.75000929  0.95115388  0.13616251
   0.74999042  0.54885466  0.63615024
   0.25002011  0.45113956  0.36384791
   0.25000177  0.71593407  0.52693333
   0.74998571  0.21593381  0.97305855
   0.25000571  0.78406959  0.02694939
   0.75001225  0.28407337  0.47306259
   0.25001755  0.12798492  0.23354334
   0.24997480  0.37202844  0.73355185
   0.75002071  0.62795356  0.26643294
   0.74997980  0.87202671  0.76645934
unknown system                          
           1
     2.890752   -0.000009    0.000002
    -0.000019    4.579321    0.000023
     0.000017    0.000025    9.207509
   Mn   O 
   4   8
Direct configuration=    23
   0.24998280  0.05042391  0.86444225
   0.75000973  0.94957694  0.13556642
   0.74999010  0.55042761  0.63555954
   0.25001819  0.44957072  0.36443926
   0.25000076  0.71600964  0.52646744
   0.74998715  0.21601108  0.97352452
   0.25000466  0.78399387  0.02648228
   0.75001086  0.28399636  0.47352813
   0.25001532  0.12992549  0.23346571
   0.24997908  0.37008794  0.73347013
   0.75002051  0.62989549  0.26651763
   0.74998085  0.87008196  0.76653770
unknown system                          
           1
     2.892922   -0.000004    0.000000
    -0.000011    4.610464    0.000017
     0.000010    0.000014    9.156991
   Mn   O 
   4   8
Direct configuration=    24
   0.24998442  0.05316837  0.86548294
   0.75001050  0.94682994  0.13452072
   0.74998954  0.55316766  0.63452329
   0.25001483  0.44683781  0.36547663
   0.24999900  0.71614127  0.52565015
   0.74998967  0.21614568  0.97434194
   0.25000281  0.78386197  0.02566285
   0.75000843  0.28386221  0.47434481
   0.25001141  0.13330593  0.23332953
   0.24998656  0.36670764  0.73332675
   0.75002016  0.63327830  0.26666620
   0.74998268  0.86669421  0.76667518
unknown system                          
           1
     2.881547   -0.000001   -0.000000
    -0.000006    4.620662    0.000026
     0.000009    0.000030    9.137994
   Mn   O 
   4   8
Direct configuration=    25
   0.24998645  0.05436964  0.86495805
   0.75000968  0.94563121  0.13504482
   0.74999035  0.55436903  0.63504442
   0.25001265  0.44563552  0.36495475
   0.24999817  0.71569110  0.52530521
   0.74999120  0.21569561  0.97468974
   0.25000224  0.78431084  0.02531341
   0.75000734  0.28431244  0.47469139
   0.25000975  0.13450521  0.23272367
   0.24998973  0.36550028  0.73272160
   0.75001765  0.63448933  0.26727319
   0.74998479  0.86549077  0.76728075
unknown system                          
           1
     2.868690    0.000002   -0.000001
    -0.000001    4.632188    0.000035
     0.000007    0.000048    9.116522
   Mn   O 
   4   8
Direct configuration=    26
   0.24998875  0.05572450  0.86436351
   0.75000876  0.94427921  0.13563846
   0.74999128  0.55572401  0.63563471
   0.25001018  0.44427951  0.36436362
   0.24999722  0.71518338  0.52491449
   0.74999295  0.21518800  0.97508368
   0.25000159  0.78481711  0.02491760
   0.75000611  0.28482023  0.47508396
   0.25000786  0.13585783  0.23203742
   0.24999332  0.36413857  0.73203614
   0.75001480  0.63585519  0.26796072
   0.74998718  0.86413345  0.76796669
unknown system                          
           1
     2.869277    0.000002   -0.000001
    -0.000002    4.645005    0.000066
     0.000006    0.000110    9.131379
   Mn   O 
   4   8
Direct configuration=    27
   0.24999016  0.05557011  0.86413115
   0.75000718  0.94443303  0.13586976
   0.74999284  0.55557041  0.63586710
   0.25000923  0.44443031  0.36413176
   0.24999697  0.71498816  0.52482127
   0.74999363  0.21499243  0.97517698
   0.25000201  0.78501249  0.02482347
   0.75000574  0.28501507  0.47517731
   0.25000698  0.13603950  0.23156580
   0.24999411  0.36395457  0.73156437
   0.75001171  0.63604037  0.26843317
   0.74998944  0.86395455  0.76843887
unknown system                          
           1
     2.869533    0.000002   -0.000002
    -0.000002    4.650585    0.000080
     0.000005    0.000137    9.137846
   Mn   O 
   4   8
Direct configuration=    28
   0.24999077  0.05550309  0.86403016
   0.75000649  0.94449980  0.13597029
   0.74999352  0.55550372  0.63596811
   0.25000881  0.44449578  0.36403099
   0.24999686  0.71490342  0.52478075
   0.74999393  0.21490753  0.97521753
   0.25000220  0.78509731  0.02478255
   0.75000558  0.28509966  0.47521788
   0.25000660  0.13611837  0.23136083
   0.24999445  0.36387470  0.73135933
   0.75001037  0.63612075  0.26863851
   0.74999043  0.86387688  0.76864409
unknown system                          
           1
     2.869444    0.000002   -0.000002
    -0.000001    4.655665    0.000069
     0.000004    0.000117    9.139968
   Mn   O 
   4   8
Direct configuration=    29
   0.24999214  0.05518258  0.86422907
   0.75000507  0.94481860  0.13577149
   0.74999497  0.55518472  0.63577190
   0.25000777  0.44481495  0.36422695
   0.24999718  0.71421399  0.52486535
   0.74999473  0.21421794  0.97513160
   0.25000233  0.78578647  0.02486867
   0.75000504  0.28578838  0.47513414
   0.25000574  0.13638412  0.23110280
   0.24999487  0.36361204  0.73109982
   0.75000770  0.63638541  0.26889801
   0.74999246  0.86361179  0.76890121
unknown system                          
           1
     2.869377    0.000002   -0.000002
    -0.000001    4.659523    0.000062
     0.000004    0.000101    9.141579
   Mn   O 
   4   8
Direct configuration=    30
   0.24999318  0.05493947  0.86438009
   0.75000399  0.94506043  0.13562055
   0.74999607  0.55494274  0.63562293
   0.25000698  0.44505707  0.36437573
   0.24999742  0.71369103  0.52492958
   0.74999534  0.21369485  0.97506637
   0.25000243  0.78630925  0.02493405
   0.75000464  0.28631080  0.47507056
   0.25000508  0.13658571  0.23090690
   0.24999519  0.36341280  0.73090280
   0.75000568  0.63658617  0.26909503
   0.74999400  0.86341070  0.76909641
unknown system                          
           1
     2.870215    0.000003   -0.000002
     0.000000    4.660775   -0.000002
     0.000004   -0.000024    9.141934
   Mn   O 
   4   8
Direct configuration=    31
   0.24999491  0.05452787  0.86426877
   0.75000273  0.94547270  0.13573149
   0.74999736  0.55453357  0.63573203
   0.25000533  0.44546642  0.36426749
   0.24999811  0.71311568  0.52503748
   0.74999649  0.21311760  0.97495702
   0.25000206  0.78688530  0.02504342
   0.75000373  0.28688533  0.47496238
   0.25000381  0.13729030  0.23082279
   0.24999609  0.36270892  0.73081994
   0.75000339  0.63728976  0.26917873
   0.74999597  0.86270756  0.76917946
unknown system                          
           1
     2.872238    0.000005   -0.000002
     0.000004    4.663796   -0.000157
     0.000004   -0.000327    9.142793
   Mn   O 
   4   8
Direct configuration=    32
   0.24999906  0.05353434  0.86400000
   0.74999970  0.94646784  0.13599932
   0.75000048  0.55354591  0.63599543
   0.25000133  0.44645452  0.36400617
   0.24999977  0.71172691  0.52529799
   0.74999927  0.21172421  0.97469302
   0.25000118  0.78827581  0.02530749
   0.75000156  0.28827213  0.47470118
   0.25000075  0.13899104  0.23061975
   0.24999828  0.36100988  0.73061987
   0.74999788  0.63898810  0.26938083
   0.75000074  0.86101031  0.76937995
unknown system                          
           1
     2.873073    0.000006   -0.000002
     0.000005    4.665043   -0.000221
     0.000004   -0.000452    9.143147
   Mn   O 
   4   8
Direct configuration=    33
   0.25000078  0.05312454  0.86388907
   0.74999845  0.94687831  0.13610986
   0.75000176  0.55313854  0.63610412
   0.24999968  0.44686207  0.36389833
   0.25000045  0.71115410  0.52540549
   0.75000042  0.21114947  0.97458406
   0.25000082  0.78884935  0.02541648
   0.75000066  0.28884413  0.47459340
   0.24999948  0.13969253  0.23053596
   0.24999918  0.36030908  0.73053730
   0.74999560  0.63968862  0.26946425
   0.75000271  0.86031025  0.76946268
unknown system                          
           1
     2.873019    0.000006   -0.000002
     0.000005    4.668215   -0.000156
     0.000004   -0.000325    9.145344
   Mn   O 
   4   8
Direct configuration=    34
   0.25000216  0.05261595  0.86380009
   0.74999779  0.94738567  0.13619948
   0.75000240  0.55261944  0.63619563
   0.24999817  0.44738055  0.36380613
   0.25000075  0.71109733  0.52563500
   0.75000119  0.21108921  0.97436086
   0.25000044  0.78890965  0.02563916
   0.74999985  0.28890019  0.47436488
   0.24999822  0.14043877  0.23049268
   0.25000052  0.35957022  0.73049155
   0.74999454  0.64042857  0.26951023
   0.75000395  0.85956544  0.76950531
unknown system                          
           1
     2.872886    0.000005   -0.000001
     0.000004    4.675931    0.000002
     0.000006   -0.000016    9.150689
   Mn   O 
   4   8
Direct configuration=    35
   0.25000553  0.05137987  0.86358373
   0.74999618  0.94861877  0.13641737
   0.75000396  0.55135778  0.63641816
   0.24999451  0.44864071  0.36358193
   0.25000147  0.71095934  0.52619305
   0.75000308  0.21094275  0.97381815
   0.24999951  0.78905619  0.02618062
   0.74999789  0.28903647  0.47380924
   0.24999516  0.14225246  0.23038741
   0.25000379  0.35777446  0.73038032
   0.74999197  0.64222698  0.26962202
   0.75000696  0.85775520  0.76960897
unknown system                          
           1
     2.872622    0.000004   -0.000001
     0.000003    4.691362    0.000318
     0.000008    0.000603    9.161377
   Mn   O 
   4   8
Direct configuration=    36
   0.25001226  0.04891181  0.86315132
   0.74999296  0.95108087  0.13685286
   0.75000707  0.54883860  0.63686300
   0.24998719  0.45115691  0.36313375
   0.25000291  0.71068375  0.52730851
   0.75000684  0.21065039  0.97273338
   0.24999764  0.78934870  0.02726291
   0.74999397  0.28930866  0.47269860
   0.24998903  0.14587388  0.23017695
   0.25001031  0.35418888  0.73015807
   0.74998682  0.64581786  0.26984541
   0.75001300  0.85414069  0.76981623
unknown system                          
           1
     2.872733    0.000005   -0.000001
     0.000003    4.684902    0.000186
     0.000007    0.000344    9.156903
   Mn   O 
   4   8
Direct configuration=    37
   0.25000944  0.04994149  0.86333207
   0.74999431  0.95005368  0.13667082
   0.75000577  0.54988966  0.63667698
   0.24999026  0.45010710  0.36332117
   0.25000231  0.71079879  0.52684214
   0.75000527  0.21077231  0.97318692
   0.24999842  0.78922672  0.02681041
   0.74999561  0.28919504  0.47316296
   0.24999160  0.14436297  0.23026500
   0.25000758  0.35568481  0.73025094
   0.74998898  0.64431972  0.26975206
   0.75001047  0.85564872  0.76972952
unknown system                          
           1
     2.871576    0.000004   -0.000001
     0.000003    4.685845    0.000191
     0.000007    0.000354    9.155580
   Mn   O 
   4   8
Direct configuration=    38
   0.25001037  0.04947766  0.86333828
   0.74999387  0.95051796  0.13666410
   0.75000618  0.54942738  0.63666786
   0.24998926  0.45056897  0.36333067
   0.25000246  0.71070678  0.52705106
   0.75000576  0.21068125  0.97297940
   0.24999815  0.78931739  0.02701819
   0.74999499  0.28928669  0.47295399
   0.24999085  0.14495776  0.23018714
   0.25000846  0.35508498  0.73017579
   0.74998850  0.64492003  0.26982747
   0.75001115  0.85505414  0.76980704
unknown system                          
           1
     2.868104    0.000003   -0.000001
     0.000001    4.688674    0.000206
     0.000008    0.000383    9.151610
   Mn   O 
   4   8
Direct configuration=    39
   0.25001316  0.04808644  0.86335691
   0.74999256  0.95191053  0.13664395
   0.75000742  0.54804080  0.63664051
   0.24998629  0.45195432  0.36335918
   0.25000291  0.71043081  0.52767791
   0.75000722  0.21040815  0.97235675
   0.24999735  0.78958932  0.02764161
   0.74999315  0.28956160  0.47232698
   0.24998860  0.14674179  0.22995351
   0.25001109  0.35328584  0.72995029
   0.74998707  0.64672063  0.27005375
   0.75001320  0.85327078  0.77003964
unknown system                          
           1
     2.861161    0.000002   -0.000001
    -0.000002    4.694332    0.000236
     0.000009    0.000442    9.143669
   Mn   O 
   4   8
Direct configuration=    40
   0.25001874  0.04530570  0.86339419
   0.74998994  0.95469399  0.13660363
   0.75000989  0.54526933  0.63658578
   0.24998033  0.45472334  0.36341621
   0.25000380  0.70987918  0.52893216
   0.75001016  0.20986227  0.97111092
   0.24999573  0.79013286  0.02888900
   0.74998945  0.29011109  0.47107242
   0.24998410  0.15030769  0.22948606
   0.25001637  0.34968973  0.72949910
   0.74998420  0.65031963  0.27050649
   0.75001729  0.84970620  0.77050505
unknown system                          
           1
     2.865426    0.000003   -0.000001
     0.000000    4.690857    0.000217
     0.000008    0.000406    9.148547
   Mn   O 
   4   8
Direct configuration=    41
   0.25001531  0.04701173  0.86337126
   0.74999155  0.95298629  0.13662842
   0.75000837  0.54696967  0.63661942
   0.24998400  0.45302450  0.36338115
   0.25000325  0.71021762  0.52816106
   0.75000835  0.21019716  0.97187684
   0.24999673  0.78979940  0.02812212
   0.74999173  0.28977396  0.47184371
   0.24998687  0.14811995  0.22977345
   0.25001312  0.35189600  0.72977648
   0.74998596  0.64811159  0.27022815
   0.75001477  0.85189313  0.77021891
unknown system                          
           1
     2.865919    0.000003   -0.000001
     0.000000    4.688917    0.000072
     0.000007    0.000122    9.149472
   Mn   O 
   4   8
Direct configuration=    42
   0.25001513  0.04665019  0.86338688
   0.74999153  0.95334893  0.13661192
   0.75000838  0.54662489  0.63660649
   0.24998432  0.45337053  0.36339504
   0.25000331  0.71014251  0.52822538
   0.75000847  0.21012467  0.97180205
   0.24999663  0.78987146  0.02819741
   0.74999144  0.28984920  0.47177814
   0.24998730  0.14862116  0.22962391
   0.25001273  0.35138748  0.72962835
   0.74998628  0.64861932  0.27037664
   0.75001447  0.85139066  0.77036879
unknown system                          
           1
     2.867399    0.000003   -0.000002
    -0.000000    4.683097   -0.000365
     0.000005   -0.000730    9.152250
   Mn   O 
   4   8
Direct configuration=    43
   0.25001461  0.04556513  0.86343370
   0.74999148  0.95443727  0.13656242
   0.75000842  0.54559013  0.63656769
   0.24998529  0.45440907  0.36343673
   0.25000349  0.70991709  0.52841832
   0.75000881  0.20990708  0.97157769
   0.24999635  0.79008774  0.02842325
   0.74999058  0.29007501  0.47158146
   0.24998862  0.15012539  0.22917535
   0.25001157  0.34986127  0.72918398
   0.74998722  0.65014318  0.27082208
   0.75001355  0.84988264  0.77081834
unknown system                          
           1
     2.870359    0.000002   -0.000003
    -0.000001    4.671457   -0.001237
     0.000001   -0.002434    9.157805
   Mn   O 
   4   8
Direct configuration=    44
   0.25001357  0.04339233  0.86352721
   0.74999138  0.95661665  0.13646355
   0.75000849  0.54351802  0.63649000
   0.24998722  0.45648874  0.36352017
   0.25000385  0.70946576  0.52880406
   0.75000950  0.20947127  0.97112907
   0.24999579  0.79052093  0.02887483
   0.74998887  0.29052713  0.47118823
   0.24999124  0.15313742  0.22827865
   0.25000925  0.34680489  0.72829536
   0.74998911  0.65319485  0.27171283
   0.75001173  0.84686301  0.77171703
unknown system                          
           1
     2.876279    0.000002   -0.000006
    -0.000002    4.648178   -0.002983
    -0.000007   -0.005841    9.168915
   Mn   O 
   4   8
Direct configuration=    45
   0.25001149  0.03903596  0.86371371
   0.74999117  0.96098621  0.13626636
   0.75000862  0.53936342  0.63633432
   0.24999108  0.46065849  0.36368736
   0.25000457  0.70856114  0.52957499