  12  12   0   0
  0.1032503E+02  0.2875312E-09  0.4651682E-09  0.9263552E-09  0.5000000E-15
  1.000000000000000E-004
  CAR 
 unknown system                          
     22.20282946    -49.95640320  301      4.04275590      1.00000000
    -49.956  0.0000E+00  0.0000E+00  0.0000E+00  0.0000E+00
    -49.716  0.0000E+00  0.0000E+00  0.0000E+00  0.0000E+00
    -49.475  0.0000E+00  0.0000E+00  0.0000E+00  0.0000E+00
    -49.235  0.0000E+00  0.0000E+00  0.0000E+00  0.0000E+00
    -48.994  0.0000E+00  0.0000E+00  0.0000E+00  0.0000E+00
    -48.754  0.0000E+00  0.0000E+00  0.0000E+00  0.0000E+00
    -48.513  0.0000E+00  0.0000E+00  0.0000E+00  0.0000E+00
    -48.273  0.0000E+00  0.0000E+00  0.0000E+00  0.0000E+00
    -48.032  0.0000E+00  0.0000E+00  0.0000E+00  0.0000E+00
    -47.792  0.0000E+00  0.0000E+00  0.0000E+00  0.0000E+00
    -47.551  0.0000E+00  0.0000E+00  0.0000E+00  0.0000E+00
    -47.311  0.0000E+00  0.0000E+00  0.0000E+00  0.0000E+00
    -47.070  0.0000E+00  0.0000E+00  0.0000E+00  0.0000E+00
    -46.830  0.0000E+00  0.0000E+00  0.0000E+00  0.0000E+00
    -46.589  0.1118E+02  0.0000E+00  0.3089E+01  0.0000E+00
    -46.348  0.0000E+00  0.0000E+00  0.1200E+02  0.0000E+00
    -46.108  0.0000E+00  0.0000E+00  0.1200E+02  0.0000E+00
    -45.867  0.0000E+00  0.0000E+00  0.1200E+02  0.0000E+00
    -45.627  0.0000E+00  0.0000E+00  0.1200E+02  0.0000E+00
    -45.386  0.0000E+00  0.0000E+00  0.1200E+02  0.0000E+00
    -45.146  0.0000E+00  0.0000E+00  0.1200E+02  0.0000E+00
    -44.905  0.0000E+00  0.0000E+00  0.1200E+02  0.0000E+00
    -44.665  0.0000E+00  0.0000E+00  0.1200E+02  0.0000E+00
    -44.424  0.0000E+00  0.0000E+00  0.1200E+02  0.0000E+00
    -44.184  0.0000E+00  0.0000E+00  0.1200E+02  0.0000E+00
    -43.943  0.0000E+00  0.0000E+00  0.1200E+02  0.0000E+00
    -43.703  0.0000E+00  0.9031E-10  0.1200E+02  0.2172E-10
    -43.462  0.0000E+00  0.1422E+02  0.1200E+02  0.7081E+01
    -43.222  0.0000E+00  0.0000E+00  0.1200E+02  0.1200E+02
    -42.981  0.0000E+00  0.0000E+00  0.1200E+02  0.1200E+02
    -42.740  0.0000E+00  0.0000E+00  0.1200E+02  0.1200E+02
    -42.500  0.0000E+00  0.0000E+00  0.1200E+02  0.1200E+02
    -42.259  0.0000E+00  0.0000E+00  0.1200E+02  0.1200E+02
    -42.019  0.0000E+00  0.0000E+00  0.1200E+02  0.1200E+02
    -41.778  0.0000E+00  0.0000E+00  0.1200E+02  0.1200E+02
    -41.538  0.0000E+00  0.0000E+00  0.1200E+02  0.1200E+02
    -41.297  0.0000E+00  0.0000E+00  0.1200E+02  0.1200E+02
    -41.057  0.0000E+00  0.0000E+00  0.1200E+02  0.1200E+02
    -40.816  0.0000E+00  0.0000E+00  0.1200E+02  0.1200E+02
    -40.576  0.0000E+00  0.0000E+00  0.1200E+02  0.1200E+02
    -40.335  0.0000E+00  0.0000E+00  0.1200E+02  0.1200E+02
    -40.095  0.0000E+00  0.0000E+00  0.1200E+02  0.1200E+02
    -39.854  0.0000E+00  0.0000E+00  0.1200E+02  0.1200E+02
    -39.614  0.0000E+00  0.0000E+00  0.1200E+02  0.1200E+02
    -39.373  0.0000E+00  0.0000E+00  0.1200E+02  0.1200E+02
    -39.133  0.0000E+00  0.0000E+00  0.1200E+02  0.1200E+02
    -38.892  0.0000E+00  0.0000E+00  0.1200E+02  0.1200E+02
    -38.651  0.0000E+00  0.0000E+00  0.1200E+02  0.1200E+02
    -38.411  0.0000E+00  0.0000E+00  0.1200E+02  0.1200E+02
    -38.170  0.0000E+00  0.0000E+00  0.1200E+02  0.1200E+02
    -37.930  0.0000E+00  0.0000E+00  0.1200E+02  0.1200E+02
    -37.689  0.0000E+00  0.0000E+00  0.1200E+02  0.1200E+02
    -37.449  0.0000E+00  0.0000E+00  0.1200E+02  0.1200E+02
    -37.208  0.0000E+00  0.0000E+00  0.1200E+02  0.1200E+02
    -36.968  0.0000E+00  0.0000E+00  0.1200E+02  0.1200E+02
    -36.727  0.0000E+00  0.0000E+00  0.1200E+02  0.1200E+02
    -36.487  0.0000E+00  0.0000E+00  0.1200E+02  0.1200E+02
    -36.246  0.0000E+00  0.0000E+00  0.1200E+02  0.1200E+02
    -36.006  0.0000E+00  0.0000E+00  0.1200E+02  0.1200E+02
    -35.765  0.0000E+00  0.0000E+00  0.1200E+02  0.1200E+02
    -35.525  0.0000E+00  0.0000E+00  0.1200E+02  0.1200E+02
    -35.284  0.0000E+00  0.0000E+00  0.1200E+02  0.1200E+02
    -35.043  0.0000E+00  0.0000E+00  0.1200E+02  0.1200E+02
    -34.803  0.0000E+00  0.0000E+00  0.1200E+02  0.1200E+02
    -34.562  0.0000E+00  0.0000E+00  0.1200E+02  0.1200E+02
    -34.322  0.0000E+00  0.0000E+00  0.1200E+02  0.1200E+02
    -34.081  0.0000E+00  0.0000E+00  0.1200E+02  0.1200E+02
    -33.841  0.0000E+00  0.0000E+00  0.1200E+02  0.1200E+02
    -33.600  0.0000E+00  0.0000E+00  0.1200E+02  0.1200E+02
    -33.360  0.0000E+00  0.0000E+00  0.1200E+02  0.1200E+02
    -33.119  0.0000E+00  0.0000E+00  0.1200E+02  0.1200E+02
    -32.879  0.0000E+00  0.0000E+00  0.1200E+02  0.1200E+02
    -32.638  0.0000E+00  0.0000E+00  0.1200E+02  0.1200E+02
    -32.398  0.0000E+00  0.0000E+00  0.1200E+02  0.1200E+02
    -32.157  0.0000E+00  0.0000E+00  0.1200E+02  0.1200E+02
    -31.917  0.0000E+00  0.0000E+00  0.1200E+02  0.1200E+02
    -31.676  0.0000E+00  0.0000E+00  0.1200E+02  0.1200E+02
    -31.436  0.0000E+00  0.0000E+00  0.1200E+02  0.1200E+02
    -31.195  0.0000E+00  0.0000E+00  0.1200E+02  0.1200E+02
    -30.954  0.0000E+00  0.0000E+00  0.1200E+02  0.1200E+02
    -30.714  0.0000E+00  0.0000E+00  0.1200E+02  0.1200E+02
    -30.473  0.0000E+00  0.0000E+00  0.1200E+02  0.1200E+02
    -30.233  0.0000E+00  0.0000E+00  0.1200E+02  0.1200E+02
    -29.992  0.0000E+00  0.0000E+00  0.1200E+02  0.1200E+02
    -29.752  0.0000E+00  0.0000E+00  0.1200E+02  0.1200E+02
    -29.511  0.0000E+00  0.0000E+00  0.1200E+02  0.1200E+02
    -29.271  0.0000E+00  0.0000E+00  0.1200E+02  0.1200E+02
    -29.030  0.0000E+00  0.0000E+00  0.1200E+02  0.1200E+02
    -28.790  0.0000E+00  0.0000E+00  0.1200E+02  0.1200E+02
    -28.549  0.0000E+00  0.0000E+00  0.1200E+02  0.1200E+02
    -28.309  0.0000E+00  0.0000E+00  0.1200E+02  0.1200E+02
    -28.068  0.0000E+00  0.0000E+00  0.1200E+02  0.1200E+02
    -27.828  0.0000E+00  0.0000E+00  0.1200E+02  0.1200E+02
    -27.587  0.0000E+00  0.0000E+00  0.1200E+02  0.1200E+02
    -27.347  0.0000E+00  0.0000E+00  0.1200E+02  0.1200E+02
    -27.106  0.0000E+00  0.0000E+00  0.1200E+02  0.1200E+02
    -26.865  0.0000E+00  0.0000E+00  0.1200E+02  0.1200E+02
    -26.625  0.0000E+00  0.0000E+00  0.1200E+02  0.1200E+02
    -26.384  0.0000E+00  0.0000E+00  0.1200E+02  0.1200E+02
    -26.144  0.0000E+00  0.0000E+00  0.1200E+02  0.1200E+02
    -25.903  0.0000E+00  0.0000E+00  0.1200E+02  0.1200E+02
    -25.663  0.0000E+00  0.0000E+00  0.1200E+02  0.1200E+02
    -25.422  0.0000E+00  0.0000E+00  0.1200E+02  0.1200E+02
    -25.182  0.0000E+00  0.0000E+00  0.1200E+02  0.1200E+02
    -24.941  0.0000E+00  0.0000E+00  0.1200E+02  0.1200E+02
    -24.701  0.0000E+00  0.0000E+00  0.1200E+02  0.1200E+02
    -24.460  0.0000E+00  0.0000E+00  0.1200E+02  0.1200E+02
    -24.220  0.0000E+00  0.0000E+00  0.1200E+02  0.1200E+02
    -23.979  0.0000E+00  0.0000E+00  0.1200E+02  0.1200E+02
    -23.739  0.0000E+00  0.0000E+00  0.1200E+02  0.1200E+02
    -23.498  0.0000E+00  0.0000E+00  0.1200E+02  0.1200E+02
    -23.257  0.0000E+00  0.0000E+00  0.1200E+02  0.1200E+02
    -23.017  0.0000E+00  0.0000E+00  0.1200E+02  0.1200E+02
    -22.776  0.0000E+00  0.0000E+00  0.1200E+02  0.1200E+02
    -22.536  0.0000E+00  0.0000E+00  0.1200E+02  0.1200E+02
    -22.295  0.0000E+00  0.0000E+00  0.1200E+02  0.1200E+02
    -22.055  0.0000E+00  0.0000E+00  0.1200E+02  0.1200E+02
    -21.814  0.0000E+00  0.0000E+00  0.1200E+02  0.1200E+02
    -21.574  0.0000E+00  0.0000E+00  0.1200E+02  0.1200E+02
    -21.333  0.0000E+00  0.0000E+00  0.1200E+02  0.1200E+02
    -21.093  0.0000E+00  0.0000E+00  0.1200E+02  0.1200E+02
    -20.852  0.0000E+00  0.0000E+00  0.1200E+02  0.1200E+02
    -20.612  0.0000E+00  0.0000E+00  0.1200E+02  0.1200E+02
    -20.371  0.0000E+00  0.0000E+00  0.1200E+02  0.1200E+02
    -20.131  0.0000E+00  0.0000E+00  0.1200E+02  0.1200E+02
    -19.890  0.0000E+00  0.0000E+00  0.1200E+02  0.1200E+02
    -19.650  0.0000E+00  0.0000E+00  0.1200E+02  0.1200E+02
    -19.409  0.0000E+00  0.0000E+00  0.1200E+02  0.1200E+02
    -19.168  0.0000E+00  0.0000E+00  0.1200E+02  0.1200E+02
    -18.928  0.0000E+00  0.0000E+00  0.1200E+02  0.1200E+02
    -18.687  0.0000E+00  0.0000E+00  0.1200E+02  0.1200E+02
    -18.447  0.0000E+00  0.0000E+00  0.1200E+02  0.1200E+02
    -18.206  0.0000E+00  0.0000E+00  0.1200E+02  0.1200E+02
    -17.966  0.0000E+00  0.0000E+00  0.1200E+02  0.1200E+02
    -17.725  0.0000E+00  0.0000E+00  0.1200E+02  0.1200E+02
    -17.485  0.0000E+00  0.0000E+00  0.1200E+02  0.1200E+02
    -17.244  0.0000E+00  0.0000E+00  0.1200E+02  0.1200E+02
    -17.004  0.0000E+00  0.0000E+00  0.1200E+02  0.1200E+02
    -16.763  0.0000E+00  0.0000E+00  0.1200E+02  0.1200E+02
    -16.523  0.0000E+00  0.0000E+00  0.1200E+02  0.1200E+02
    -16.282  0.0000E+00  0.0000E+00  0.1200E+02  0.1200E+02
    -16.042  0.0000E+00  0.0000E+00  0.1200E+02  0.1200E+02
    -15.801  0.0000E+00  0.0000E+00  0.1200E+02  0.1200E+02
    -15.561  0.1197E+00  0.0000E+00  0.1203E+02  0.1200E+02
    -15.320  0.3986E+00  0.2343E+00  0.1225E+02  0.1210E+02
    -15.079  0.8021E+00  0.6428E+00  0.1270E+02  0.1242E+02
    -14.839  0.5338E+00  0.4615E+00  0.1303E+02  0.1283E+02
    -14.598  0.6213E+00  0.3567E+00  0.1339E+02  0.1315E+02
    -14.358  0.8360E+00  0.2579E+00  0.1387E+02  0.1349E+02
    -14.117  0.1391E+01  0.7339E+00  0.1479E+02  0.1422E+02
    -13.877  0.2705E+01  0.9529E+00  0.1623E+02  0.1523E+02
    -13.636  0.2496E+01  0.2416E+01  0.1976E+02  0.1677E+02
    -13.396  0.0000E+00  0.1305E+01  0.2000E+02  0.2000E+02
    -13.155  0.0000E+00  0.0000E+00  0.2000E+02  0.2000E+02
    -12.915  0.0000E+00  0.0000E+00  0.2000E+02  0.2000E+02
    -12.674  0.0000E+00  0.0000E+00  0.2000E+02  0.2000E+02
    -12.434  0.0000E+00  0.0000E+00  0.2000E+02  0.2000E+02
    -12.193  0.0000E+00  0.0000E+00  0.2000E+02  0.2000E+02
    -11.953  0.0000E+00  0.0000E+00  0.2000E+02  0.2000E+02
    -11.712  0.0000E+00  0.0000E+00  0.2000E+02  0.2000E+02
    -11.471  0.0000E+00  0.0000E+00  0.2000E+02  0.2000E+02
    -11.231  0.0000E+00  0.0000E+00  0.2000E+02  0.2000E+02
    -10.990  0.0000E+00  0.0000E+00  0.2000E+02  0.2000E+02
    -10.750  0.0000E+00  0.0000E+00  0.2000E+02  0.2000E+02
    -10.509  0.0000E+00  0.0000E+00  0.2000E+02  0.2000E+02
    -10.269  0.0000E+00  0.0000E+00  0.2000E+02  0.2000E+02
    -10.028  0.0000E+00  0.0000E+00  0.2000E+02  0.2000E+02
     -9.788  0.0000E+00  0.0000E+00  0.2000E+02  0.2000E+02
     -9.547  0.0000E+00  0.0000E+00  0.2000E+02  0.2000E+02
     -9.307  0.0000E+00  0.0000E+00  0.2000E+02  0.2000E+02
     -9.066  0.0000E+00  0.0000E+00  0.2000E+02  0.2000E+02
     -8.826  0.0000E+00  0.0000E+00  0.2000E+02  0.2000E+02
     -8.585  0.0000E+00  0.0000E+00  0.2000E+02  0.2000E+02
     -8.345  0.0000E+00  0.0000E+00  0.2000E+02  0.2000E+02
     -8.104  0.0000E+00  0.0000E+00  0.2000E+02  0.2000E+02
     -7.864  0.0000E+00  0.0000E+00  0.2000E+02  0.2000E+02
     -7.623  0.0000E+00  0.0000E+00  0.2000E+02  0.2000E+02
     -7.382  0.0000E+00  0.0000E+00  0.2000E+02  0.2000E+02
     -7.142  0.0000E+00  0.0000E+00  0.2000E+02  0.2000E+02
     -6.901  0.0000E+00  0.0000E+00  0.2000E+02  0.2000E+02
     -6.661  0.0000E+00  0.0000E+00  0.2000E+02  0.2000E+02
     -6.420  0.0000E+00  0.0000E+00  0.2000E+02  0.2000E+02
     -6.180  0.0000E+00  0.0000E+00  0.2000E+02  0.2000E+02
     -5.939  0.0000E+00  0.0000E+00  0.2000E+02  0.2000E+02
     -5.699  0.0000E+00  0.0000E+00  0.2000E+02  0.2000E+02
     -5.458  0.0000E+00  0.0000E+00  0.2000E+02  0.2000E+02
     -5.218  0.0000E+00  0.0000E+00  0.2000E+02  0.2000E+02
     -4.977  0.0000E+00  0.0000E+00  0.2000E+02  0.2000E+02
     -4.737  0.0000E+00  0.0000E+00  0.2000E+02  0.2000E+02
     -4.496  0.0000E+00  0.0000E+00  0.2000E+02  0.2000E+02
     -4.256  0.0000E+00  0.0000E+00  0.2000E+02  0.2000E+02
     -4.015  0.0000E+00  0.0000E+00  0.2000E+02  0.2000E+02
     -3.774  0.0000E+00  0.0000E+00  0.2000E+02  0.2000E+02
     -3.534  0.0000E+00  0.0000E+00  0.2000E+02  0.2000E+02
     -3.293  0.4028E-01  0.0000E+00  0.2001E+02  0.2000E+02
     -3.053  0.2944E+00  0.0000E+00  0.2013E+02  0.2000E+02
     -2.812  0.6122E+00  0.0000E+00  0.2042E+02  0.2000E+02
     -2.572  0.1460E+01  0.9111E-01  0.2125E+02  0.2003E+02
     -2.331  0.2228E+01  0.2028E+00  0.2278E+02  0.2018E+02
     -2.091  0.1653E+01  0.6488E+00  0.2406E+02  0.2064E+02
     -1.850  0.2824E+01  0.1162E+01  0.2582E+02  0.2159E+02
     -1.610  0.2631E+01  0.1122E+01  0.2772E+02  0.2293E+02
     -1.369  0.1132E+01  0.2683E+01  0.2834E+02  0.2448E+02
     -1.129  0.1504E+01  0.2651E+01  0.2949E+02  0.2653E+02
     -0.888  0.1058E+01  0.1453E+01  0.3041E+02  0.2788E+02
     -0.648  0.1681E+01  0.1357E+01  0.3148E+02  0.2854E+02
     -0.407  0.6641E+00  0.1461E+01  0.3232E+02  0.2980E+02
     -0.167  0.1019E+01  0.1585E+01  0.3311E+02  0.3086E+02
      0.074  0.2646E+01  0.1226E+01  0.3488E+02  0.3179E+02
      0.315  0.2158E+01  0.6566E+00  0.3610E+02  0.3223E+02
      0.555  0.2213E+01  0.1962E+01  0.3770E+02  0.3359E+02
      0.796  0.1257E+01  0.1767E+01  0.3917E+02  0.3498E+02
      1.036  0.9197E+00  0.2557E+01  0.3990E+02  0.3642E+02
      1.277  0.1821E+01  0.1043E+01  0.4119E+02  0.3753E+02
      1.517  0.1319E+01  0.1151E+01  0.4227E+02  0.3833E+02
      1.758  0.1898E+01  0.1381E+01  0.4332E+02  0.3937E+02
      1.998  0.1890E+01  0.1153E+01  0.4436E+02  0.4027E+02
      2.239  0.2543E+01  0.1887E+01  0.4585E+02  0.4156E+02
      2.479  0.2948E+01  0.2250E+01  0.4832E+02  0.4278E+02
      2.720  0.1682E+01  0.7541E+00  0.4975E+02  0.4353E+02
      2.960  0.2241E+01  0.3765E+00  0.5166E+02  0.4388E+02
      3.201  0.6168E+00  0.2970E-01  0.5221E+02  0.4399E+02
      3.441  0.2069E+01  0.0000E+00  0.5345E+02  0.4400E+02
      3.682  0.1618E+01  0.0000E+00  0.5485E+02  0.4400E+02
      3.922  0.7822E+00  0.0000E+00  0.5591E+02  0.4400E+02
      4.163  0.0000E+00  0.0000E+00  0.5600E+02  0.4400E+02
      4.404  0.0000E+00  0.0000E+00  0.5600E+02  0.4400E+02
      4.644  0.0000E+00  0.4446E-01  0.5600E+02  0.4401E+02
      4.885  0.4412E-14  0.2579E+01  0.5600E+02  0.4491E+02
      5.125  0.1959E+01  0.3077E+01  0.5671E+02  0.4730E+02
      5.366  0.1921E+01  0.3590E+01  0.5792E+02  0.4959E+02
      5.606  0.1098E+01  0.2168E+01  0.5901E+02  0.5209E+02
      5.847  0.3610E+00  0.1305E+01  0.5937E+02  0.5289E+02
      6.087  0.1298E+01  0.1783E+01  0.5991E+02  0.5458E+02
      6.328  0.1227E+01  0.1298E+01  0.6085E+02  0.5548E+02
      6.568  0.1661E+01  0.3382E+00  0.6225E+02  0.5609E+02
      6.809  0.1615E+01  0.1592E+01  0.6382E+02  0.5739E+02
      7.049  0.1485E+00  0.1201E+01  0.6400E+02  0.5886E+02
      7.290  0.0000E+00  0.4014E+00  0.6400E+02  0.5934E+02
      7.530  0.0000E+00  0.1795E+01  0.6400E+02  0.6033E+02
      7.771  0.0000E+00  0.2447E+01  0.6400E+02  0.6174E+02
      8.012  0.0000E+00  0.2446E+01  0.6400E+02  0.6336E+02
      8.252  0.0000E+00  0.8911E-01  0.6400E+02  0.6390E+02
      8.493  0.0000E+00  0.1485E-01  0.6400E+02  0.6400E+02
      8.733  0.0000E+00  0.0000E+00  0.6400E+02  0.6400E+02
      8.974  0.0000E+00  0.0000E+00  0.6400E+02  0.6400E+02
      9.214  0.0000E+00  0.0000E+00  0.6400E+02  0.6400E+02
      9.455  0.0000E+00  0.0000E+00  0.6400E+02  0.6400E+02
      9.695  0.0000E+00  0.0000E+00  0.6400E+02  0.6400E+02
      9.936  0.0000E+00  0.0000E+00  0.6400E+02  0.6400E+02
     10.176  0.0000E+00  0.0000E+00  0.6400E+02  0.6400E+02
     10.417  0.0000E+00  0.0000E+00  0.6400E+02  0.6400E+02
     10.657  0.0000E+00  0.0000E+00  0.6400E+02  0.6400E+02
     10.898  0.0000E+00  0.0000E+00  0.6400E+02  0.6400E+02
     11.138  0.1485E-01  0.0000E+00  0.6400E+02  0.6400E+02
     11.379  0.2970E-01  0.0000E+00  0.6402E+02  0.6400E+02
     11.619  0.5362E-01  0.0000E+00  0.6405E+02  0.6400E+02
     11.860  0.1438E+00  0.2970E-01  0.6410E+02  0.6402E+02
     12.101  0.8931E-01  0.5939E-01  0.6413E+02  0.6407E+02
     12.341  0.1816E+00  0.0000E+00  0.6420E+02  0.6410E+02
     12.582  0.8909E-01  0.2110E-06  0.6427E+02  0.6414E+02
     12.822  0.5285E-01  0.4731E-01  0.6434E+02  0.6421E+02
     13.063  0.2625E+00  0.1628E+00  0.6445E+02  0.6431E+02
     13.303  0.9044E-01  0.1574E+00  0.6454E+02  0.6438E+02
     13.544  0.4449E+00  0.1778E+00  0.6469E+02  0.6451E+02
     13.784  0.1057E-01  0.1492E+00  0.6481E+02  0.6458E+02
     14.025  0.2981E+00  0.2377E+00  0.6500E+02  0.6477E+02
     14.265  0.2632E+00  0.3098E+00  0.6521E+02  0.6490E+02
     14.506  0.5816E+00  0.3059E+00  0.6540E+02  0.6511E+02
     14.746  0.6238E+00  0.1394E+00  0.6570E+02  0.6527E+02
     14.987  0.6846E+00  0.2011E+00  0.6609E+02  0.6554E+02
     15.227  0.7386E+00  0.5433E+00  0.6655E+02  0.6589E+02
     15.468  0.5653E+00  0.5952E+00  0.6698E+02  0.6631E+02
     15.708  0.6876E+00  0.6589E+00  0.6746E+02  0.6672E+02
     15.949  0.3888E+00  0.5082E+00  0.6791E+02  0.6710E+02
     16.190  0.4872E+00  0.5143E+00  0.6835E+02  0.6770E+02
     16.430  0.6517E+00  0.4926E+00  0.6873E+02  0.6805E+02
     16.671  0.4196E+00  0.4467E+00  0.6902E+02  0.6848E+02
     16.911  0.7127E+00  0.2673E+00  0.6948E+02  0.6869E+02
     17.152  0.4456E+00  0.3884E+00  0.7003E+02  0.6902E+02
     17.392  0.4988E+00  0.4354E+00  0.7049E+02  0.6952E+02
     17.633  0.6305E+00  0.5814E+00  0.7094E+02  0.7001E+02
     17.873  0.3888E+00  0.8829E+00  0.7128E+02  0.7054E+02
     18.114  0.4604E+00  0.7262E+00  0.7166E+02  0.7091E+02
     18.354  0.2610E+00  0.7319E+00  0.7196E+02  0.7130E+02
     18.595  0.0000E+00  0.2663E+00  0.7200E+02  0.7160E+02
     18.835  0.0000E+00  0.2889E-01  0.7200E+02  0.7192E+02
     19.076  0.0000E+00  0.0000E+00  0.7200E+02  0.7200E+02
     19.316  0.0000E+00  0.0000E+00  0.7200E+02  0.7200E+02
     19.557  0.0000E+00  0.0000E+00  0.7200E+02  0.7200E+02
     19.798  0.0000E+00  0.0000E+00  0.7200E+02  0.7200E+02
     20.038  0.0000E+00  0.0000E+00  0.7200E+02  0.7200E+02
     20.279  0.0000E+00  0.0000E+00  0.7200E+02  0.7200E+02
     20.519  0.0000E+00  0.0000E+00  0.7200E+02  0.7200E+02
     20.760  0.0000E+00  0.0000E+00  0.7200E+02  0.7200E+02
     21.000  0.0000E+00  0.0000E+00  0.7200E+02  0.7200E+02
     21.241  0.0000E+00  0.0000E+00  0.7200E+02  0.7200E+02
     21.481  0.0000E+00  0.0000E+00  0.7200E+02  0.7200E+02
     21.722  0.0000E+00  0.0000E+00  0.7200E+02  0.7200E+02
     21.962  0.0000E+00  0.0000E+00  0.7200E+02  0.7200E+02
     22.203  0.0000E+00  0.0000E+00  0.7200E+02  0.7200E+02
