   12   12    1    2
  0.1032503E+02  0.2875312E-09  0.4651682E-09  0.9263552E-09  0.5000000E-15
  1.000000000000000E-004
  CAR 
 unknown system                          
    100    142     72
 
  0.0000000E+00  0.0000000E+00  0.0000000E+00  0.3571429E-02
    1      -46.587181    -43.546701   1.000000   1.000000
    2      -46.578125    -43.541668   1.000000   1.000000
    3      -46.577581    -43.537758   1.000000   1.000000
    4      -46.574996    -43.534203   1.000000   1.000000
    5      -46.562751    -43.523845   1.000000   1.000000
    6      -46.559638    -43.519964   1.000000   1.000000
    7      -46.525688    -43.465289   1.000000   1.000000
    8      -46.523987    -43.452679   1.000000   1.000000
    9      -46.500547    -43.389633   1.000000   1.000000
   10      -46.495675    -43.376854   1.000000   1.000000
   11      -46.491993    -43.374387   1.000000   1.000000
   12      -46.488751    -43.361381   1.000000   1.000000
   13      -15.655655    -15.501184   1.000000   1.000000
   14      -15.059032    -14.956728   1.000000   1.000000
   15      -14.775287    -14.556019   1.000000   1.000000
   16      -13.997489    -13.844330   1.000000   1.000000
   17      -13.745619    -13.577829   1.000000   1.000000
   18      -13.674084    -13.509861   1.000000   1.000000
   19      -13.601260    -13.444493   1.000000   1.000000
   20      -13.564296    -13.405445   1.000000   1.000000
   21       -3.331005     -2.719987   1.000000   1.000000
   22       -2.679112     -2.019865   1.000000   1.000000
   23       -2.590242     -1.750050   1.000000   1.000000
   24       -2.408084     -1.569536   1.000000   1.000000
   25       -1.966984     -1.209280   1.000000   1.000000
   26       -1.716220     -1.086351   1.000000   1.000000
   27       -1.660194     -0.914365   1.000000   1.000000
   28       -1.608928     -0.886946   1.000000   1.000000
   29       -1.395719     -0.593718   1.000000   1.000000
   30       -1.386694     -0.547586   1.000000   1.000000
   31       -1.243462     -0.507627   1.000000   1.000000
   32       -0.562222     -0.010500   1.000000   1.000000
   33       -0.464335      0.282250   1.000000   1.000000
   34        0.239607      0.950686   1.000000   1.000000
   35        0.546060      0.977242   1.000000   1.000000
   36        0.583868      1.079478   1.000000   1.000000
   37        0.722418      1.244296   1.000000   1.000000
   38        0.807170      1.622979   1.000000   1.000000
   39        0.853659      1.740709   1.000000   1.000000
   40        1.337307      2.507003   1.000000   1.000000
   41        1.527912      2.688076   1.000000   1.000000
   42        1.576685      2.726917   1.000000   1.000000
   43        1.726549      3.079728   1.000000   1.000000
   44        2.100755      3.297729   1.000000   1.000000
   45        2.329384      4.603459   1.000000   0.000000
   46        2.335278      4.716079   1.000000   0.000000
   47        2.495241      4.730308   1.000000   0.000000
   48        2.584287      5.066000   1.000000   0.000000
   49        2.628562      5.118483   1.000000   0.000000
   50        2.671761      5.126415   1.000000   0.000000
   51        2.720503      5.327736   1.000000   0.000000
   52        2.901581      5.360346   1.000000   0.000000
   53        3.094178      5.450667   1.000000   0.000000
   54        3.341669      5.718733   1.000000   0.000000
   55        3.621702      6.369757   1.000000   0.000000
   56        3.830536      6.373344   1.000000   0.000000
   57        4.936113      6.414060   0.000000   0.000000
   58        5.368603      6.907566   0.000000   0.000000
   59        6.383250      7.578445   0.000000   0.000000
   60        6.497627      7.703716   0.000000   0.000000
   61        6.501310      7.920136   0.000000   0.000000
   62        6.629457      7.939444   0.000000   0.000000
   63        6.642106      8.006167   0.000000   0.000000
   64        7.073208      8.461935   0.000000   0.000000
   65       11.077031     11.495451   0.000000   0.000000
   66       13.071761     13.437328   0.000000   0.000000
   67       13.699213     14.040647   0.000000   0.000000
   68       14.710320     15.210681   0.000000   0.000000
   69       15.038352     15.453694   0.000000   0.000000
   70       16.202408     16.812369   0.000000   0.000000
   71       16.478755     17.069600   0.000000   0.000000
   72       17.355986     17.675939   0.000000   0.000000
 
  0.1000000E+00  0.2419359E-22  0.0000000E+00  0.7142857E-02
    1      -46.587893    -43.553197   1.000000   1.000000
    2      -46.586241    -43.550193   1.000000   1.000000
    3      -46.585502    -43.546509   1.000000   1.000000
    4      -46.582312    -43.544146   1.000000   1.000000
    5      -46.567831    -43.528640   1.000000   1.000000
    6      -46.565668    -43.522850   1.000000   1.000000
    7      -46.524493    -43.464329   1.000000   1.000000
    8      -46.522694    -43.452943   1.000000   1.000000
    9      -46.499325    -43.387742   1.000000   1.000000
   10      -46.495701    -43.375359   1.000000   1.000000
   11      -46.491429    -43.373129   1.000000   1.000000
   12      -46.488186    -43.360685   1.000000   1.000000
   13      -15.562388    -15.409154   1.000000   1.000000
   14      -14.988635    -14.888670   1.000000   1.000000
   15      -14.705351    -14.485328   1.000000   1.000000
   16      -13.965486    -13.817168   1.000000   1.000000
   17      -13.754150    -13.584370   1.000000   1.000000
   18      -13.682252    -13.533284   1.000000   1.000000
   19      -13.624640    -13.450476   1.000000   1.000000
   20      -13.583028    -13.418812   1.000000   1.000000
   21       -3.196111     -2.598169   1.000000   1.000000
   22       -2.566932     -1.924058   1.000000   1.000000
   23       -2.492337     -1.669824   1.000000   1.000000
   24       -2.307514     -1.486733   1.000000   1.000000
   25       -1.888884     -1.194624   1.000000   1.000000
   26       -1.866793     -1.141510   1.000000   1.000000
   27       -1.820375     -1.069253   1.000000   1.000000
   28       -1.712637     -1.014372   1.000000   1.000000
   29       -1.319347     -0.589084   1.000000   1.000000
   30       -1.223816     -0.481581   1.000000   1.000000
   31       -1.176243     -0.332269   1.000000   1.000000
   32       -0.473836      0.042090   1.000000   1.000000
   33       -0.399022      0.347061   1.000000   1.000000
   34       -0.052967      0.647946   1.000000   1.000000
   35        0.322767      0.931051   1.000000   1.000000
   36        0.335484      0.971678   1.000000   1.000000
   37        0.682091      1.066351   1.000000   1.000000
   38        0.823321      1.449286   1.000000   1.000000
   39        0.851835      1.786680   1.000000   1.000000
   40        1.093711      2.058633   1.000000   1.000000
   41        1.314034      2.494972   1.000000   1.000000
   42        1.485296      2.801371   1.000000   1.000000
   43        1.587863      3.043605   1.000000   1.000000
   44        2.234161      3.165364   1.000000   1.000000
   45        2.256627      4.719126   1.000000   0.000000
   46        2.284222      4.739083   1.000000   0.000000
   47        2.455795      4.831500   1.000000   0.000000
   48        2.536582      5.215535   1.000000   0.000000
   49        2.688754      5.255413   1.000000   0.000000
   50        2.832473      5.265385   1.000000   0.000000
   51        2.887645      5.269821   1.000000   0.000000
   52        2.920419      5.465274   1.000000   0.000000
   53        3.276418      5.540332   1.000000   0.000000
   54        3.335179      5.693345   1.000000   0.000000
   55        3.649244      6.351655   1.000000   0.000000
   56        3.836982      6.396661   1.000000   0.000000
   57        5.000494      6.464404   0.000000   0.000000
   58        5.393410      6.853104   0.000000   0.000000
   59        6.175673      7.467715   0.000000   0.000000
   60        6.244594      7.478155   0.000000   0.000000
   61        6.382707      7.751792   0.000000   0.000000
   62        6.432657      7.754864   0.000000   0.000000
   63        6.564417      7.993169   0.000000   0.000000
   64        7.012250      8.379301   0.000000   0.000000
   65       11.422720     11.818294   0.000000   0.000000
   66       13.358566     13.715895   0.000000   0.000000
   67       13.940738     14.274523   0.000000   0.000000
   68       15.098233     15.597374   0.000000   0.000000
   69       15.430116     15.845792   0.000000   0.000000
   70       16.487252     17.082557   0.000000   0.000000
   71       16.784762     17.356295   0.000000   0.000000
   72       17.426510     17.731934   0.000000   0.000000
 
  0.2000000E+00  0.1542663E-21  0.1654361E-23  0.7142857E-02
    1      -46.612952    -43.582853   1.000000   1.000000
    2      -46.611890    -43.581531   1.000000   1.000000
    3      -46.606113    -43.574806   1.000000   1.000000
    4      -46.601823    -43.569260   1.000000   1.000000
    5      -46.570721    -43.527504   1.000000   1.000000
    6      -46.561326    -43.515014   1.000000   1.000000
    7      -46.522515    -43.463335   1.000000   1.000000
    8      -46.520082    -43.454726   1.000000   1.000000
    9      -46.496226    -43.382397   1.000000   1.000000
   10      -46.495675    -43.371488   1.000000   1.000000
   11      -46.490167    -43.369827   1.000000   1.000000
   12      -46.486865    -43.359074   1.000000   1.000000
   13      -15.300040    -15.151027   1.000000   1.000000
   14      -14.797031    -14.703683   1.000000   1.000000
   15      -14.515840    -14.293174   1.000000   1.000000
   16      -13.894469    -13.764082   1.000000   1.000000
   17      -13.775327    -13.600126   1.000000   1.000000
   18      -13.703995    -13.599849   1.000000   1.000000
   19      -13.690455    -13.466529   1.000000   1.000000
   20      -13.633008    -13.449622   1.000000   1.000000
   21       -2.824767     -2.265517   1.000000   1.000000
   22       -2.278976     -1.688350   1.000000   1.000000
   23       -2.236330     -1.471363   1.000000   1.000000
   24       -2.076375     -1.346128   1.000000   1.000000
   25       -2.017158     -1.304720   1.000000   1.000000
   26       -2.014916     -1.222351   1.000000   1.000000
   27       -1.825448     -1.162455   1.000000   1.000000
   28       -1.702068     -1.003112   1.000000   1.000000
   29       -1.373354     -0.608314   1.000000   1.000000
   30       -1.009331     -0.395742   1.000000   1.000000
   31       -0.937315     -0.214147   1.000000   1.000000
   32       -0.813069     -0.133782   1.000000   1.000000
   33       -0.675019      0.007318   1.000000   1.000000
   34       -0.388186      0.126044   1.000000   1.000000
   35        0.106239      0.855002   1.000000   1.000000
   36        0.162426      0.868334   1.000000   1.000000
   37        0.409796      1.130325   1.000000   1.000000
   38        0.631892      1.247621   1.000000   1.000000
   39        0.664337      1.372368   1.000000   1.000000
   40        0.959122      1.652885   1.000000   1.000000
   41        1.154838      2.209721   1.000000   1.000000
   42        1.276473      2.650614   1.000000   1.000000
   43        1.333515      2.818015   1.000000   1.000000
   44        1.988526      2.895853   1.000000   1.000000
   45        2.232713      4.816398   1.000000   0.000000
   46        2.396399      4.974295   1.000000   0.000000
   47        2.415336      5.044506   1.000000   0.000000
   48        2.515706      5.306111   1.000000   0.000000
   49        2.848676      5.306489   1.000000   0.000000
   50        2.858724      5.390922   1.000000   0.000000
   51        2.999761      5.401001   1.000000   0.000000
   52        3.030645      5.513371   1.000000   0.000000
   53        3.255760      5.771346   1.000000   0.000000
   54        3.485574      5.779830   1.000000   0.000000
   55        3.737377      6.270411   1.000000   0.000000
   56        3.809438      6.402703   1.000000   0.000000
   57        5.150035      6.633799   0.000000   0.000000
   58        5.228634      6.664780   0.000000   0.000000
   59        5.660493      7.053706   0.000000   0.000000
   60        5.906753      7.400849   0.000000   0.000000
   61        6.044973      7.459866   0.000000   0.000000
   62        6.224957      7.486380   0.000000   0.000000
   63        6.578099      7.932797   0.000000   0.000000
   64        6.782455      8.116389   0.000000   0.000000
   65       12.317912     12.667584   0.000000   0.000000
   66       14.045874     14.378806   0.000000   0.000000
   67       14.521096     14.834619   0.000000   0.000000
   68       16.062105     16.557454   0.000000   0.000000
   69       16.393596     16.810268   0.000000   0.000000
   70       17.226669     17.794972   0.000000   0.000000
   71       17.546980     17.881960   0.000000   0.000000
   72       17.570549     18.078224   0.000000   0.000000
 
  0.3000000E+00  0.4611095E-22  0.3308722E-23  0.7142857E-02
    1      -46.643359    -43.618919   1.000000   1.000000
    2      -46.643156    -43.618611   1.000000   1.000000
    3      -46.638459    -43.613450   1.000000   1.000000
    4      -46.634105    -43.607988   1.000000   1.000000
    5      -46.559733    -43.513572   1.000000   1.000000
    6      -46.551746    -43.503048   1.000000   1.000000
    7      -46.522090    -43.464670   1.000000   1.000000
    8      -46.519529    -43.459587   1.000000   1.000000
    9      -46.494501    -43.374900   1.000000   1.000000
   10      -46.492430    -43.366700   1.000000   1.000000
   11      -46.488731    -43.365679   1.000000   1.000000
   12      -46.485739    -43.357739   1.000000   1.000000
   13      -14.920512    -14.779978   1.000000   1.000000
   14      -14.538454    -14.453803   1.000000   1.000000
   15      -14.264297    -14.035196   1.000000   1.000000
   16      -13.855541    -13.756448   1.000000   1.000000
   17      -13.797392    -13.702489   1.000000   1.000000
   18      -13.788099    -13.612792   1.000000   1.000000
   19      -13.733236    -13.489641   1.000000   1.000000
   20      -13.694106    -13.477791   1.000000   1.000000
   21       -2.356226     -1.834065   1.000000   1.000000
   22       -2.166913     -1.457426   1.000000   1.000000
   23       -2.104508     -1.449585   1.000000   1.000000
   24       -2.040723     -1.393203   1.000000   1.000000
   25       -1.963930     -1.263075   1.000000   1.000000
   26       -1.944622     -1.245991   1.000000   1.000000
   27       -1.903766     -1.244622   1.000000   1.000000
   28       -1.779133     -1.141636   1.000000   1.000000
   29       -1.303050     -0.758283   1.000000   1.000000
   30       -1.170018     -0.721407   1.000000   1.000000
   31       -1.140393     -0.304846   1.000000   1.000000
   32       -0.809288     -0.231370   1.000000   1.000000
   33       -0.571969      0.122992   1.000000   1.000000
   34       -0.395045      0.245317   1.000000   1.000000
   35       -0.210168      0.492227   1.000000   1.000000
   36        0.175207      0.764804   1.000000   1.000000
   37        0.302721      1.004548   1.000000   1.000000
   38        0.351835      1.167522   1.000000   1.000000
   39        0.442014      1.186711   1.000000   1.000000
   40        0.924011      1.475584   1.000000   1.000000
   41        1.143328      2.107114   1.000000   1.000000
   42        1.210838      2.190923   1.000000   1.000000
   43        1.250749      2.473322   1.000000   1.000000
   44        1.570561      2.598105   1.000000   1.000000
   45        2.110516      4.804797   1.000000   0.000000
   46        2.125576      5.039199   1.000000   0.000000
   47        2.363716      5.158514   1.000000   0.000000
   48        2.487963      5.353731   1.000000   0.000000
   49        2.754083      5.356419   1.000000   0.000000
   50        2.773333      5.394499   1.000000   0.000000
   51        2.799957      5.492341   1.000000   0.000000
   52        2.964469      5.494588   1.000000   0.000000
   53        3.442531      5.907387   1.000000   0.000000
   54        3.488489      5.923125   1.000000   0.000000
   55        3.702531      6.210185   1.000000   0.000000
   56        3.809857      6.307971   1.000000   0.000000
   57        4.970955      6.541865   0.000000   0.000000
   58        5.238381      6.780336   0.000000   0.000000
   59        5.294759      6.780923   0.000000   0.000000
   60        5.545793      7.128976   0.000000   0.000000
   61        5.917744      7.389041   0.000000   0.000000
   62        6.472606      7.732026   0.000000   0.000000
   63        6.477514      7.783369   0.000000   0.000000
   64        6.643300      7.925637   0.000000   0.000000
   65       13.491830     13.798035   0.000000   0.000000
   66       14.845030     15.152033   0.000000   0.000000
   67       15.184024     15.476981   0.000000   0.000000
   68       17.205360     17.694454   0.000000   0.000000
   69       17.511642     17.932948   0.000000   0.000000
   70       17.798421     18.136825   0.000000   0.000000
   71       17.931750     18.305372   0.000000   0.000000
   72       18.072849     18.646608   0.000000   0.000000
 
  0.4000000E+00  0.3085325E-21  0.3308722E-23  0.7142857E-02
    1      -46.667963    -43.648170   1.000000   1.000000
    2      -46.666557    -43.646339   1.000000   1.000000
    3      -46.665242    -43.645147   1.000000   1.000000
    4      -46.661693    -43.640672   1.000000   1.000000
    5      -46.546302    -43.497052   1.000000   1.000000
    6      -46.540982    -43.489939   1.000000   1.000000
    7      -46.524907    -43.469518   1.000000   1.000000
    8      -46.524163    -43.468456   1.000000   1.000000
    9      -46.491326    -43.367217   1.000000   1.000000
   10      -46.489203    -43.362749   1.000000   1.000000
   11      -46.487577    -43.362291   1.000000   1.000000
   12      -46.485874    -43.358141   1.000000   1.000000
   13      -14.505876    -14.379804   1.000000   1.000000
   14      -14.283800    -14.203955   1.000000   1.000000
   15      -14.039867    -13.843961   1.000000   1.000000
   16      -13.932731    -13.833883   1.000000   1.000000
   17      -13.898723    -13.788188   1.000000   1.000000
   18      -13.804720    -13.607055   1.000000   1.000000
   19      -13.772523    -13.528387   1.000000   1.000000
   20      -13.742984    -13.514129   1.000000   1.000000
   21       -2.599865     -1.944951   1.000000   1.000000
   22       -2.471070     -1.852114   1.000000   1.000000
   23       -2.105413     -1.508802   1.000000   1.000000
   24       -2.091461     -1.353118   1.000000   1.000000
   25       -2.017734     -1.335002   1.000000   1.000000
   26       -1.840157     -1.185624   1.000000   1.000000
   27       -1.676685     -1.122981   1.000000   1.000000
   28       -1.594471     -0.904158   1.000000   1.000000
   29       -1.252653     -0.782604   1.000000   1.000000
   30       -1.073224     -0.713489   1.000000   1.000000
   31       -0.944333     -0.472535   1.000000   1.000000
   32       -0.640599     -0.175146   1.000000   1.000000
   33       -0.603754      0.296405   1.000000   1.000000
   34       -0.219117      0.426267   1.000000   1.000000
   35       -0.161698      0.529604   1.000000   1.000000
   36        0.163771      0.594638   1.000000   1.000000
   37        0.335756      0.990019   1.000000   1.000000
   38        0.346454      1.009935   1.000000   1.000000
   39        0.659736      1.212081   1.000000   1.000000
   40        0.713053      1.597390   1.000000   1.000000
   41        0.797820      1.672280   1.000000   1.000000
   42        1.208845      1.893317   1.000000   1.000000
   43        1.262667      2.184076   1.000000   1.000000
   44        1.373923      2.202499   1.000000   1.000000
   45        1.892764      4.842414   1.000000   0.000000
   46        2.035938      4.932484   1.000000   0.000000
   47        2.103730      5.098321   1.000000   0.000000
   48        2.203665      5.207306   1.000000   0.000000
   49        2.363946      5.263858   1.000000   0.000000
   50        2.418190      5.421113   1.000000   0.000000
   51        2.628126      5.539802   1.000000   0.000000
   52        2.719942      5.567166   1.000000   0.000000
   53        3.571316      5.930113   1.000000   0.000000
   54        3.587271      6.001495   1.000000   0.000000
   55        3.602457      6.186292   1.000000   0.000000
   56        3.798775      6.207287   1.000000   0.000000
   57        4.936954      6.572679   0.000000   0.000000
   58        5.129455      6.671278   0.000000   0.000000
   59        5.265386      6.853296   0.000000   0.000000
   60        5.373870      6.987972   0.000000   0.000000
   61        6.046692      7.503598   0.000000   0.000000
   62        6.267025      7.611536   0.000000   0.000000
   63        6.714077      7.971409   0.000000   0.000000
   64        6.758238      8.016644   0.000000   0.000000
   65       14.740209     15.014110   0.000000   0.000000
   66       15.543737     15.839050   0.000000   0.000000
   67       15.730762     16.014457   0.000000   0.000000
   68       17.058810     17.347732   0.000000   0.000000
   69       17.636469     18.073150   0.000000   0.000000
   70       17.677121     18.093810   0.000000   0.000000
   71       17.992946     18.393545   0.000000   0.000000
   72       18.385783     18.821804   0.000000   0.000000
 
  0.5000000E+00  0.3591959E-21  0.3308722E-23  0.3571429E-02
    1      -46.676438    -43.658285   1.000000   1.000000
    2      -46.676363    -43.658234   1.000000   1.000000
    3      -46.673911    -43.655069   1.000000   1.000000
    4      -46.673833    -43.655016   1.000000   1.000000
    5      -46.533743    -43.481343   1.000000   1.000000
    6      -46.533658    -43.481283   1.000000   1.000000
    7      -46.531521    -43.478225   1.000000   1.000000
    8      -46.531438    -43.478167   1.000000   1.000000
    9      -46.487903    -43.361303   1.000000   1.000000
   10      -46.487814    -43.361245   1.000000   1.000000
   11      -46.487572    -43.361143   1.000000   1.000000
   12      -46.487484    -43.361089   1.000000   1.000000
   13      -14.152898    -14.047703   1.000000   1.000000
   14      -14.152873    -14.047664   1.000000   1.000000
   15      -14.084279    -13.996728   1.000000   1.000000
   16      -14.084232    -13.996676   1.000000   1.000000
   17      -13.848041    -13.616046   1.000000   1.000000
   18      -13.847982    -13.615991   1.000000   1.000000
   19      -13.785546    -13.570027   1.000000   1.000000
   20      -13.785510    -13.569984   1.000000   1.000000
   21       -2.739542     -2.108860   1.000000   1.000000
   22       -2.739540     -2.108853   1.000000   1.000000
   23       -2.083773     -1.462239   1.000000   1.000000
   24       -2.083733     -1.462221   1.000000   1.000000
   25       -1.952319     -1.186917   1.000000   1.000000
   26       -1.952268     -1.186888   1.000000   1.000000
   27       -1.508067     -0.867753   1.000000   1.000000
   28       -1.508065     -0.867746   1.000000   1.000000
   29       -1.095046     -0.681399   1.000000   1.000000
   30       -1.095039     -0.681392   1.000000   1.000000
   31       -0.795593     -0.480901   1.000000   1.000000
   32       -0.795576     -0.480885   1.000000   1.000000
   33       -0.200167      0.355979   1.000000   1.000000
   34       -0.200120      0.356039   1.000000   1.000000
   35       -0.007270      0.787743   1.000000   1.000000
   36       -0.007219      0.787774   1.000000   1.000000
   37        0.285963      0.967990   1.000000   1.000000
   38        0.286030      0.968005   1.000000   1.000000
   39        0.689083      1.306032   1.000000   1.000000
   40        0.689087      1.306053   1.000000   1.000000
   41        1.067044      1.845414   1.000000   1.000000
   42        1.067045      1.845461   1.000000   1.000000
   43        1.322481      1.888338   1.000000   1.000000
   44        1.322506      1.888387   1.000000   1.000000
   45        1.939502      4.969378   1.000000   0.000000
   46        1.939521      4.969379   1.000000   0.000000
   47        1.995876      5.001578   1.000000   0.000000
   48        1.995932      5.001601   1.000000   0.000000
   49        2.087095      5.378144   1.000000   0.000000
   50        2.087150      5.378175   1.000000   0.000000
   51        2.533577      5.436267   1.000000   0.000000
   52        2.533611      5.436294   1.000000   0.000000
   53        3.600429      6.076054   1.000000   0.000000
   54        3.600462      6.076082   1.000000   0.000000
   55        3.712314      6.117971   1.000000   0.000000
   56        3.712342      6.118024   1.000000   0.000000
   57        5.025221      6.629958   0.000000   0.000000
   58        5.025251      6.629973   0.000000   0.000000
   59        5.302903      6.919132   0.000000   0.000000
   60        5.302919      6.919135   0.000000   0.000000
   61        6.169740      7.578898   0.000000   0.000000
   62        6.169754      7.578901   0.000000   0.000000
   63        6.812311      8.070573   0.000000   0.000000
   64        6.812333      8.070597   0.000000   0.000000
   65       15.925848     16.213454   0.000000   0.000000
   66       15.925969     16.213574   0.000000   0.000000
   67       15.954523     16.215909   0.000000   0.000000
   68       15.954536     16.215922   0.000000   0.000000
   69       17.295676     17.707665   0.000000   0.000000
   70       17.295802     17.707787   0.000000   0.000000
   71       18.479941     18.894988   0.000000   0.000000
   72       18.479980     18.895028   0.000000   0.000000
 
 -0.3966533E-22  0.1428571E+00  0.1058791E-21  0.7142857E-02
    1      -46.586784    -43.546143   1.000000   1.000000
    2      -46.578175    -43.541476   1.000000   1.000000
    3      -46.577970    -43.537949   1.000000   1.000000
    4      -46.575152    -43.534911   1.000000   1.000000
    5      -46.562596    -43.523660   1.000000   1.000000
    6      -46.559800    -43.520166   1.000000   1.000000
    7      -46.525594    -43.464784   1.000000   1.000000
    8      -46.524006    -43.453453   1.000000   1.000000
    9      -46.500510    -43.388873   1.000000   1.000000
   10      -46.494969    -43.375941   1.000000   1.000000
   11      -46.492674    -43.375116   1.000000   1.000000
   12      -46.488821    -43.362056   1.000000   1.000000
   13      -15.612297    -15.458933   1.000000   1.000000
   14      -15.064823    -14.959329   1.000000   1.000000
   15      -14.739065    -14.521445   1.000000   1.000000
   16      -14.037848    -13.881489   1.000000   1.000000
   17      -13.743394    -13.576252   1.000000   1.000000
   18      -13.688917    -13.527367   1.000000   1.000000
   19      -13.622884    -13.463627   1.000000   1.000000
   20      -13.591755    -13.435253   1.000000   1.000000
   21       -3.300958     -2.680498   1.000000   1.000000
   22       -2.610391     -1.934419   1.000000   1.000000
   23       -2.586758     -1.792845   1.000000   1.000000
   24       -2.453121     -1.624068   1.000000   1.000000
   25       -2.013790     -1.258041   1.000000   1.000000
   26       -1.710037     -1.057373   1.000000   1.000000
   27       -1.626623     -0.909871   1.000000   1.000000
   28       -1.618669     -0.887551   1.000000   1.000000
   29       -1.378621     -0.593918   1.000000   1.000000
   30       -1.255762     -0.519704   1.000000   1.000000
   31       -1.251814     -0.353890   1.000000   1.000000
   32       -0.557575      0.023863   1.000000   1.000000
   33       -0.456489      0.235989   1.000000   1.000000
   34        0.251048      0.990610   1.000000   1.000000
   35        0.529470      1.068570   1.000000   1.000000
   36        0.590140      1.141133   1.000000   1.000000
   37        0.625410      1.237417   1.000000   1.000000
   38        0.825845      1.668900   1.000000   1.000000
   39        1.087992      1.780945   1.000000   1.000000
   40        1.302460      2.453726   1.000000   1.000000
   41        1.429031      2.507278   1.000000   1.000000
   42        1.591089      2.617904   1.000000   1.000000
   43        1.722674      2.925878   1.000000   1.000000
   44        2.014148      3.115064   1.000000   1.000000
   45        2.262996      4.624567   1.000000   0.000000
   46        2.350926      4.745392   1.000000   0.000000
   47        2.364454      4.748058   1.000000   0.000000
   48        2.400006      5.048163   1.000000   0.000000
   49        2.676985      5.076025   1.000000   0.000000
   50        2.678829      5.090170   1.000000   0.000000
   51        2.771927      5.370385   1.000000   0.000000
   52        2.919328      5.409664   1.000000   0.000000
   53        3.064711      5.446726   1.000000   0.000000
   54        3.421365      5.812376   1.000000   0.000000
   55        3.562779      6.307942   1.000000   0.000000
   56        3.883738      6.362136   1.000000   0.000000
   57        4.945066      6.536210   0.000000   0.000000
   58        5.458205      6.955091   0.000000   0.000000
   59        6.373323      7.571550   0.000000   0.000000
   60        6.375378      7.706676   0.000000   0.000000
   61        6.505987      7.900533   0.000000   0.000000
   62        6.613293      7.924946   0.000000   0.000000
   63        6.652778      7.931652   0.000000   0.000000
   64        6.978856      8.366556   0.000000   0.000000
   65       11.339928     11.756516   0.000000   0.000000
   66       13.244045     13.608185   0.000000   0.000000
   67       13.853782     14.199091   0.000000   0.000000
   68       14.660583     15.161572   0.000000   0.000000
   69       15.136363     15.582171   0.000000   0.000000
   70       16.189447     16.684597   0.000000   0.000000
   71       16.259312     16.846974   0.000000   0.000000
   72       17.579325     18.037562   0.000000   0.000000
 
  0.1000000E+00  0.1428571E+00 -0.1058791E-21  0.7142857E-02
    1      -46.587774    -43.553050   1.000000   1.000000