 vasp.5.4.4.18Apr17-6-g9f103f2a35 (build Nov 08 2022 17:27:33) complex          
  
 executed on             LinuxIFC date 2022.11.22  19:28:26
 running on   16 total cores
 distrk:  each k-point on   16 cores,    1 groups
 distr:  one band on NCORES_PER_BAND=   4 cores,    4 groups


--------------------------------------------------------------------------------------------------------


 INCAR:
 POTCAR:    PAW_PBE Mn_pv 02Aug2007               
 POTCAR:    PAW_PBE O 08Apr2002                   
 POTCAR:    PAW_PBE Mn_pv 02Aug2007               
   VRHFIN =Mn: 3p4s3d                                                           
   LEXCH  = PE                                                                  
   EATOM  =  2025.2664 eV,  148.8529 Ry                                         
                                                                                
   TITEL  = PAW_PBE Mn_pv 02Aug2007                                             
   LULTRA =        F    use ultrasoft PP ?                                      
   IUNSCR =        1    unscreen: 0-lin 1-nonlin 2-no                           
   RPACOR =    2.080    partial core radius                                     
   POMASS =   54.938; ZVAL   =   13.000    mass and valenz                      
   RCORE  =    2.300    outmost cutoff radius                                   
   RWIGS  =    2.500; RWIGS  =    1.323    wigner-seitz radius (au A)           
   ENMAX  =  269.864; ENMIN  =  202.398 eV                                      
   ICORE  =        3    local potential                                         
   LCOR   =        T    correct aug charges                                     
   LPAW   =        T    paw PP                                                  
   EAUG   =  569.085                                                            
   DEXC   =    0.000                                                            
   RMAX   =    2.343    core radius for proj-oper                               
   RAUG   =    1.300    factor for augmentation sphere                          
   RDEP   =    2.338    radius for radial grids                                 
   RDEPT  =    1.798    core radius for aug-charge                              
                                                                                
   Atomic configuration                                                         
    8 entries                                                                   
     n  l   j            E        occ.                                          
     1  0  0.50     -6424.8287   2.0000                                         
     2  0  0.50      -739.1154   2.0000                                         
     2  1  1.50      -625.3949   6.0000                                         
     3  0  0.50       -81.6100   2.0000                                         
     3  1  1.50       -50.4667   6.0000                                         
     3  2  2.50        -3.3745   6.0000                                         
     4  0  0.50        -4.1331   1.0000                                         
     4  3  2.50        -1.3606   0.0000                                         
   Description                                                                  
     l       E           TYP  RCUT    TYP  RCUT                                 
     1    -50.4666628     23  2.000                                             
     1     -1.3605826     23  2.000                                             
     2     -3.3744729     23  2.300                                             
     2     -4.7350555     23  2.300                                             
     0     -4.1331431     23  2.300                                             
     0      7.6656591     23  2.300                                             
     3      9.5240782     23  2.300                                             
  local pseudopotential read in
  partial core-charges read in
  partial kinetic energy density read in
  atomic valenz-charges read in
  non local Contribution for L=           1  read in
    real space projection operators read in
  non local Contribution for L=           1  read in
    real space projection operators read in
  non local Contribution for L=           2  read in
    real space projection operators read in
  non local Contribution for L=           2  read in
    real space projection operators read in
  non local Contribution for L=           0  read in
    real space projection operators read in
  non local Contribution for L=           0  read in
    real space projection operators read in
    PAW grid and wavefunctions read in
 
   number of l-projection  operators is LMAX  =           6
   number of lm-projection operators is LMMAX =          18
 
 POTCAR:    PAW_PBE O 08Apr2002                   
   VRHFIN =O: s2p4                                                              
   LEXCH  = PE                                                                  
   EATOM  =   432.3788 eV,   31.7789 Ry                                         
                                                                                
   TITEL  = PAW_PBE O 08Apr2002                                                 
   LULTRA =        F    use ultrasoft PP ?                                      
   IUNSCR =        1    unscreen: 0-lin 1-nonlin 2-no                           
   RPACOR =    1.200    partial core radius                                     
   POMASS =   16.000; ZVAL   =    6.000    mass and valenz                      
   RCORE  =    1.520    outmost cutoff radius                                   
   RWIGS  =    1.550; RWIGS  =    0.820    wigner-seitz radius (au A)           
   ENMAX  =  400.000; ENMIN  =  300.000 eV                                      
   ICORE  =        2    local potential                                         
   LCOR   =        T    correct aug charges                                     
   LPAW   =        T    paw PP                                                  
   EAUG   =  605.392                                                            
   DEXC   =    0.000                                                            
   RMAX   =    1.553    core radius for proj-oper                               
   RAUG   =    1.300    factor for augmentation sphere                          
   RDEP   =    1.550    radius for radial grids                                 
   RDEPT  =    1.329    core radius for aug-charge                              
                                                                                
   Atomic configuration                                                         
    4 entries                                                                   
     n  l   j            E        occ.                                          
     1  0  0.50      -514.6923   2.0000                                         
     2  0  0.50       -23.9615   2.0000                                         
     2  1  0.50        -9.0305   4.0000                                         
     3  2  1.50        -9.5241   0.0000                                         
   Description                                                                  
     l       E           TYP  RCUT    TYP  RCUT                                 
     0    -23.9615318     23  1.200                                             
     0     -9.5240782     23  1.200                                             
     1     -9.0304911     23  1.520                                             
     1      8.1634956     23  1.520                                             
     2     -9.5240782      7  1.500                                             
  local pseudopotential read in
  partial core-charges read in
  partial kinetic energy density read in
  kinetic energy density of atom read in
  atomic valenz-charges read in
  non local Contribution for L=           0  read in
    real space projection operators read in
  non local Contribution for L=           0  read in
    real space projection operators read in
  non local Contribution for L=           1  read in
    real space projection operators read in
  non local Contribution for L=           1  read in
    real space projection operators read in
    PAW grid and wavefunctions read in
 
   number of l-projection  operators is LMAX  =           4
   number of lm-projection operators is LMMAX =           8
 
  PAW_PBE Mn_pv 02Aug2007               :
 energy of atom  1       EATOM=-2025.2664
 kinetic energy error for atom=    0.0058 (will be added to EATOM!!)
  PAW_PBE O 08Apr2002                   :
 energy of atom  2       EATOM= -432.3788
 kinetic energy error for atom=    0.0208 (will be added to EATOM!!)
 
 
 POSCAR: Mn4 O8                                  
  positions in direct lattice
  velocities in cartesian coordinates
 exchange correlation table for  LEXCH =        8
   RHO(1)=    0.500       N(1)  =     2000
   RHO(2)=  100.500       N(2)  =     4000

 VTST: version 3.2, (02/03/18)

 CHAIN: initializing optimizer
 
 OPT: Using VASP Conjugate-Gradient optimizer
 CHAIN: Read ICHAIN            0
 
 POSCAR: Mn4 O8                                  
  positions in direct lattice
  velocities in cartesian coordinates
 


--------------------------------------------------------------------------------------------------------


 ion  position               nearest neighbor table
   1  0.250  0.035  0.865-  12 1.90  12 1.90   7 1.92   6 1.92   6 1.92  10 1.92   2 2.90   2 2.90

   2  0.750  0.965  0.135-   9 1.90   9 1.90   6 1.92   7 1.92   7 1.92  11 1.92   1 2.90   1 2.90

   3  0.750  0.535  0.635-  10 1.90  10 1.90   8 1.92   5 1.92   5 1.92  12 1.92   4 2.90   4 2.90

   4  0.250  0.465  0.365-  11 1.90  11 1.90   5 1.92   8 1.92   8 1.92   9 1.92   3 2.90   3 2.90

   5  0.250  0.713  0.531-   4 1.92   3 1.92   3 1.92
   6  0.750  0.213  0.969-   2 1.92   1 1.92   1 1.92
   7  0.250  0.787  0.031-   1 1.92   2 1.92   2 1.92
   8  0.750  0.287  0.469-   3 1.92   4 1.92   4 1.92
   9  0.250  0.158  0.226-   2 1.90   2 1.90   4 1.92
  10  0.250  0.342  0.726-   3 1.90   3 1.90   1 1.92
  11  0.750  0.658  0.274-   4 1.90   4 1.90   2 1.92
  12  0.750  0.842  0.774-   1 1.90   1 1.90   3 1.92
 

IMPORTANT INFORMATION: All symmetrisations will be switched off!
NOSYMM: (Re-)initialisation of all symmetry stuff for point group C_1.

 
 

Automatic generation of k-mesh.
 generate k-points for:   10    7    4
Space group operators:
 irot       det(A)        alpha          n_x          n_y          n_z        tau_x        tau_y        tau_z
    1     1.000000     0.000000     1.000000     0.000000     0.000000     0.000000     0.000000     0.000000
 
 Subroutine IBZKPT returns following result:
 ===========================================
 
 Found    142 irreducible k-points:
 
 Following reciprocal coordinates:
            Coordinates               Weight
  0.000000  0.000000  0.000000      1.000000
  0.100000  0.000000  0.000000      2.000000
  0.200000  0.000000  0.000000      2.000000
  0.300000  0.000000  0.000000      2.000000
  0.400000  0.000000  0.000000      2.000000
  0.500000  0.000000  0.000000      1.000000
 -0.000000  0.142857  0.000000      2.000000
  0.100000  0.142857 -0.000000      2.000000
  0.200000  0.142857  0.000000      2.000000
  0.300000  0.142857 -0.000000      2.000000
  0.400000  0.142857  0.000000      2.000000
  0.500000  0.142857  0.000000      2.000000
 -0.400000  0.142857 -0.000000      2.000000
 -0.300000  0.142857  0.000000      2.000000
 -0.200000  0.142857 -0.000000      2.000000
 -0.100000  0.142857  0.000000      2.000000
 -0.000000  0.285714  0.000000      2.000000
  0.100000  0.285714  0.000000      2.000000
  0.200000  0.285714  0.000000      2.000000
  0.300000  0.285714 -0.000000      2.000000
  0.400000  0.285714  0.000000      2.000000
  0.500000  0.285714  0.000000      2.000000
 -0.400000  0.285714 -0.000000      2.000000
 -0.300000  0.285714  0.000000      2.000000
 -0.200000  0.285714  0.000000      2.000000
 -0.100000  0.285714 -0.000000      2.000000
  0.000000  0.428571  0.000000      2.000000
  0.100000  0.428571  0.000000      2.000000
  0.200000  0.428571 -0.000000      2.000000
  0.300000  0.428571 -0.000000      2.000000
  0.400000  0.428571  0.000000      2.000000
  0.500000  0.428571  0.000000      2.000000
 -0.400000  0.428571 -0.000000      2.000000
 -0.300000  0.428571  0.000000      2.000000
 -0.200000  0.428571 -0.000000      2.000000
 -0.100000  0.428571  0.000000      2.000000
 -0.000000  0.000000  0.250000      2.000000
  0.100000  0.000000  0.250000      2.000000
  0.200000  0.000000  0.250000      2.000000
  0.300000  0.000000  0.250000      2.000000
  0.400000  0.000000  0.250000      2.000000
  0.500000  0.000000  0.250000      2.000000
 -0.400000 -0.000000  0.250000      2.000000
 -0.300000  0.000000  0.250000      2.000000
 -0.200000  0.000000  0.250000      2.000000
 -0.100000 -0.000000  0.250000      2.000000
  0.000000  0.142857  0.250000      2.000000
  0.100000  0.142857  0.250000      2.000000
  0.200000  0.142857  0.250000      2.000000
  0.300000  0.142857  0.250000      2.000000
  0.400000  0.142857  0.250000      2.000000
  0.500000  0.142857  0.250000      2.000000
 -0.400000  0.142857  0.250000      2.000000
 -0.300000  0.142857  0.250000      2.000000
 -0.200000  0.142857  0.250000      2.000000
 -0.100000  0.142857  0.250000      2.000000
  0.000000  0.285714  0.250000      2.000000
  0.100000  0.285714  0.250000      2.000000
  0.200000  0.285714  0.250000      2.000000
  0.300000  0.285714  0.250000      2.000000
  0.400000  0.285714  0.250000      2.000000
  0.500000  0.285714  0.250000      2.000000
 -0.400000  0.285714  0.250000      2.000000
 -0.300000  0.285714  0.250000      2.000000
 -0.200000  0.285714  0.250000      2.000000
 -0.100000  0.285714  0.250000      2.000000
 -0.000000  0.428571  0.250000      2.000000
  0.100000  0.428571  0.250000      2.000000
  0.200000  0.428571  0.250000      2.000000
  0.300000  0.428571  0.250000      2.000000
  0.400000  0.428571  0.250000      2.000000
  0.500000  0.428571  0.250000      2.000000
 -0.400000  0.428571  0.250000      2.000000
 -0.300000  0.428571  0.250000      2.000000
 -0.200000  0.428571  0.250000      2.000000
 -0.100000  0.428571  0.250000      2.000000
 -0.000000 -0.428571  0.250000      2.000000
  0.100000 -0.428571  0.250000      2.000000
  0.200000 -0.428571  0.250000      2.000000
  0.300000 -0.428571  0.250000      2.000000
  0.400000 -0.428571  0.250000      2.000000
  0.500000 -0.428571  0.250000      2.000000
 -0.400000 -0.428571  0.250000      2.000000
 -0.300000 -0.428571  0.250000      2.000000
 -0.200000 -0.428571  0.250000      2.000000
 -0.100000 -0.428571  0.250000      2.000000
  0.000000 -0.285714  0.250000      2.000000
  0.100000 -0.285714  0.250000      2.000000
  0.200000 -0.285714  0.250000      2.000000
  0.300000 -0.285714  0.250000      2.000000
  0.400000 -0.285714  0.250000      2.000000
  0.500000 -0.285714  0.250000      2.000000
 -0.400000 -0.285714  0.250000      2.000000
 -0.300000 -0.285714  0.250000      2.000000
 -0.200000 -0.285714  0.250000      2.000000
 -0.100000 -0.285714  0.250000      2.000000
  0.000000 -0.142857  0.250000      2.000000
  0.100000 -0.142857  0.250000      2.000000
  0.200000 -0.142857  0.250000      2.000000
  0.300000 -0.142857  0.250000      2.000000
  0.400000 -0.142857  0.250000      2.000000
  0.500000 -0.142857  0.250000      2.000000
 -0.400000 -0.142857  0.250000      2.000000
 -0.300000 -0.142857  0.250000      2.000000
 -0.200000 -0.142857  0.250000      2.000000
 -0.100000 -0.142857  0.250000      2.000000
 -0.000000  0.000000  0.500000      1.000000
  0.100000 -0.000000  0.500000      2.000000
  0.200000  0.000000  0.500000      2.000000
  0.300000  0.000000  0.500000      2.000000
  0.400000  0.000000  0.500000      2.000000
  0.500000  0.000000  0.500000      1.000000
 -0.000000  0.142857  0.500000      2.000000
  0.100000  0.142857  0.500000      2.000000
  0.200000  0.142857  0.500000      2.000000
  0.300000  0.142857  0.500000      2.000000
  0.400000  0.142857  0.500000      2.000000
  0.500000  0.142857  0.500000      2.000000
 -0.400000  0.142857  0.500000      2.000000
 -0.300000  0.142857  0.500000      2.000000
 -0.200000  0.142857  0.500000      2.000000
 -0.100000  0.142857  0.500000      2.000000
  0.000000  0.285714  0.500000      2.000000
  0.100000  0.285714  0.500000      2.000000
  0.200000  0.285714  0.500000      2.000000
  0.300000  0.285714  0.500000      2.000000
  0.400000  0.285714  0.500000      2.000000
  0.500000  0.285714  0.500000      2.000000
 -0.400000  0.285714  0.500000      2.000000
 -0.300000  0.285714  0.500000      2.000000
 -0.200000  0.285714  0.500000      2.000000
 -0.100000  0.285714  0.500000      2.000000
  0.000000  0.428571  0.500000      2.000000
  0.100000  0.428571  0.500000      2.000000
  0.200000  0.428571  0.500000      2.000000
  0.300000  0.428571  0.500000      2.000000
  0.400000  0.428571  0.500000      2.000000
  0.500000  0.428571  0.500000      2.000000
 -0.400000  0.428571  0.500000      2.000000
 -0.300000  0.428571  0.500000      2.000000
 -0.200000  0.428571  0.500000      2.000000
 -0.100000  0.428571  0.500000      2.000000
 
 Following cartesian coordinates:
            Coordinates               Weight
  0.000000  0.000000  0.000000      1.000000
  0.034779  0.000000 -0.000000      2.000000
  0.069558  0.000000 -0.000000      2.000000
  0.104337  0.000000 -0.000000      2.000000
  0.139115  0.000000 -0.000000      2.000000
  0.173894  0.000000 -0.000000      1.000000
  0.000000  0.030711 -0.000000      2.000000
  0.034779  0.030711 -0.000000      2.000000
  0.069558  0.030711 -0.000000      2.000000
  0.104337  0.030711 -0.000000      2.000000
  0.139115  0.030711 -0.000000      2.000000
  0.173894  0.030711 -0.000000      2.000000
 -0.139115  0.030711 -0.000000      2.000000
 -0.104336  0.030711 -0.000000      2.000000
 -0.069558  0.030711 -0.000000      2.000000
 -0.034779  0.030711 -0.000000      2.000000
  0.000000  0.061422 -0.000000      2.000000
  0.034779  0.061422 -0.000000      2.000000
  0.069558  0.061422 -0.000000      2.000000
  0.104337  0.061422 -0.000000      2.000000
  0.139115  0.061422 -0.000000      2.000000
  0.173894  0.061422 -0.000000      2.000000
 -0.139115  0.061422 -0.000000      2.000000
 -0.104336  0.061422 -0.000000      2.000000
 -0.069558  0.061422 -0.000000      2.000000
 -0.034779  0.061422 -0.000000      2.000000
  0.000000  0.092133 -0.000000      2.000000
  0.034779  0.092133 -0.000000      2.000000
  0.069558  0.092133 -0.000000      2.000000
  0.104337  0.092133 -0.000000      2.000000
  0.139115  0.092133 -0.000000      2.000000
  0.173894  0.092133 -0.000000      2.000000
 -0.139115  0.092132 -0.000000      2.000000
 -0.104336  0.092132 -0.000000      2.000000
 -0.069558  0.092132 -0.000000      2.000000
 -0.034779  0.092133 -0.000000      2.000000
  0.000000 -0.000000  0.026987      2.000000
  0.034779 -0.000000  0.026987      2.000000
  0.069558  0.000000  0.026987      2.000000
  0.104337  0.000000  0.026987      2.000000
  0.139115  0.000000  0.026987      2.000000
  0.173894  0.000000  0.026987      2.000000
 -0.139115 -0.000000  0.026987      2.000000
 -0.104337 -0.000000  0.026987      2.000000
 -0.069558 -0.000000  0.026987      2.000000
 -0.034779 -0.000000  0.026987      2.000000
  0.000000  0.030711  0.026987      2.000000
  0.034779  0.030711  0.026987      2.000000
  0.069558  0.030711  0.026987      2.000000
  0.104337  0.030711  0.026987      2.000000
  0.139115  0.030711  0.026987      2.000000
  0.173894  0.030711  0.026987      2.000000
 -0.139115  0.030711  0.026987      2.000000
 -0.104336  0.030711  0.026987      2.000000
 -0.069558  0.030711  0.026987      2.000000
 -0.034779  0.030711  0.026987      2.000000
  0.000000  0.061422  0.026987      2.000000
  0.034779  0.061422  0.026987      2.000000
  0.069558  0.061422  0.026987      2.000000
  0.104337  0.061422  0.026987      2.000000
  0.139115  0.061422  0.026987      2.000000
  0.173894  0.061422  0.026987      2.000000
 -0.139115  0.061421  0.026987      2.000000
 -0.104336  0.061421  0.026987      2.000000
 -0.069558  0.061422  0.026987      2.000000
 -0.034779  0.061422  0.026987      2.000000
  0.000000  0.092133  0.026987      2.000000
  0.034779  0.092133  0.026987      2.000000
  0.069558  0.092133  0.026987      2.000000
  0.104337  0.092133  0.026987      2.000000
  0.139115  0.092133  0.026987      2.000000
  0.173894  0.092133  0.026987      2.000000
 -0.139115  0.092132  0.026987      2.000000
 -0.104336  0.092132  0.026987      2.000000
 -0.069558  0.092132  0.026987      2.000000
 -0.034779  0.092132  0.026987      2.000000
 -0.000000 -0.092133  0.026988      2.000000
  0.034779 -0.092133  0.026988      2.000000
  0.069558 -0.092133  0.026988      2.000000
  0.104336 -0.092132  0.026988      2.000000
  0.139115 -0.092132  0.026988      2.000000
  0.173894 -0.092132  0.026988      2.000000
 -0.139115 -0.092133  0.026988      2.000000
 -0.104337 -0.092133  0.026988      2.000000
 -0.069558 -0.092133  0.026988      2.000000
 -0.034779 -0.092133  0.026988      2.000000
 -0.000000 -0.061422  0.026988      2.000000
  0.034779 -0.061422  0.026988      2.000000
  0.069558 -0.061422  0.026988      2.000000
  0.104336 -0.061422  0.026988      2.000000
  0.139115 -0.061422  0.026988      2.000000
  0.173894 -0.061422  0.026988      2.000000
 -0.139115 -0.061422  0.026988      2.000000
 -0.104337 -0.061422  0.026988      2.000000
 -0.069558 -0.061422  0.026988      2.000000
 -0.034779 -0.061422  0.026988      2.000000
 -0.000000 -0.030711  0.026988      2.000000
  0.034779 -0.030711  0.026988      2.000000
  0.069558 -0.030711  0.026988      2.000000
  0.104336 -0.030711  0.026988      2.000000
  0.139115 -0.030711  0.026988      2.000000
  0.173894 -0.030711  0.026988      2.000000
 -0.139115 -0.030711  0.026988      2.000000
 -0.104337 -0.030711  0.026988      2.000000
 -0.069558 -0.030711  0.026988      2.000000
 -0.034779 -0.030711  0.026988      2.000000
  0.000000 -0.000000  0.053975      1.000000
  0.034779 -0.000000  0.053975      2.000000
  0.069558 -0.000000  0.053975      2.000000
  0.104337  0.000000  0.053975      2.000000
  0.139115  0.000000  0.053975      2.000000
  0.173894  0.000000  0.053975      1.000000
  0.000000  0.030711  0.053975      2.000000
  0.034779  0.030711  0.053975      2.000000
  0.069558  0.030711  0.053975      2.000000
  0.104337  0.030711  0.053975      2.000000
  0.139115  0.030711  0.053975      2.000000
  0.173894  0.030711  0.053975      2.000000
 -0.139115  0.030711  0.053975      2.000000
 -0.104336  0.030711  0.053975      2.000000
 -0.069558  0.030711  0.053975      2.000000
 -0.034779  0.030711  0.053975      2.000000
  0.000000  0.061422  0.053975      2.000000
  0.034779  0.061422  0.053975      2.000000
  0.069558  0.061422  0.053975      2.000000
  0.104337  0.061422  0.053975      2.000000
  0.139115  0.061422  0.053975      2.000000
  0.173894  0.061422  0.053975      2.000000
 -0.139115  0.061421  0.053975      2.000000
 -0.104336  0.061421  0.053975      2.000000
 -0.069558  0.061421  0.053975      2.000000
 -0.034779  0.061422  0.053975      2.000000
  0.000000  0.092132  0.053975      2.000000
  0.034779  0.092132  0.053975      2.000000
  0.069558  0.092133  0.053975      2.000000
  0.104337  0.092133  0.053975      2.000000
  0.139115  0.092133  0.053975      2.000000
  0.173894  0.092133  0.053975      2.000000
 -0.139115  0.092132  0.053975      2.000000
 -0.104336  0.092132  0.053975      2.000000
 -0.069558  0.092132  0.053975      2.000000
 -0.034779  0.092132  0.053975      2.000000
 


--------------------------------------------------------------------------------------------------------




 Dimension of arrays:
   k-points           NKPTS =    142   k-points in BZ     NKDIM =    142   number of bands    NBANDS=     72
   number of dos      NEDOS =    301   number of ions     NIONS =     12
   non local maximal  LDIM  =      6   non local SUM 2l+1 LMDIM =     18
   total plane-waves  NPLWV =  60480
   max r-space proj   IRMAX =      1   max aug-charges    IRDMAX=  15009
   dimension x,y,z NGX =    24 NGY =   36 NGZ =   70
   dimension x,y,z NGXF=    48 NGYF=   72 NGZF=  140
   support grid    NGXF=    48 NGYF=   72 NGZF=  140
   ions per type =               4   8
   NGX,Y,Z   is equivalent  to a cutoff of  13.88, 12.87, 12.56 a.u.
   NGXF,Y,Z  is equivalent  to a cutoff of  27.75, 25.73, 25.12 a.u.

 SYSTEM =  unknown system                          
 POSCAR =  Mn4 O8                                  

 Startparameter for this run:
   NWRITE =      2    write-flag & timer
   PREC   = accura    normal or accurate (medium, high low for compatibility)
   ISTART =      1    job   : 0-new  1-cont  2-samecut
   ICHARG =      0    charge: 1-file 2-atom 10-const
   ISPIN  =      2    spin polarized calculation?
   LNONCOLLINEAR =      F non collinear calculations
   LSORBIT =      F    spin-orbit coupling
   INIWAV =      1    electr: 0-lowe 1-rand  2-diag
   LASPH  =      T    aspherical Exc in radial PAW
   METAGGA=      F    non-selfconsistent MetaGGA calc.

 Electronic Relaxation 1
   ENCUT  =  520.0 eV  38.22 Ry    6.18 a.u.   5.35  8.65 17.22*2*pi/ulx,y,z
   ENINI  =  520.0     initial cutoff
   ENAUG  = 1040.0 eV  augmentation charge cutoff
   NELM   =    100;   NELMIN=  2; NELMDL=  0     # of ELM steps 
   EDIFF  = 0.1E-05   stopping-criterion for ELM
   LREAL  =      F    real-space projection
   NLSPLINE    = F    spline interpolate recip. space projectors
   LCOMPAT=      F    compatible to vasp.4.4
   GGA_COMPAT  = T    GGA compatible to vasp.4.4-vasp.4.6
   LMAXPAW     = -100 max onsite density
   LMAXMIX     =    4 max onsite mixed and CHGCAR
   VOSKOWN=      0    Vosko Wilk Nusair interpolation
   ROPT   =    0.00000   0.00000
 Ionic relaxation
   EDIFFG = -.3E-01   stopping-criterion for IOM
   NSW    =      0    number of steps for IOM
   NBLOCK =      1;   KBLOCK =      1    inner block; outer block 
   IBRION =     -1    ionic relax: 0-MD 1-quasi-New 2-CG
   NFREE  =      1    steps in history (QN), initial steepest desc. (CG)
   ISIF   =      3    stress and relaxation
   IWAVPR =     10    prediction:  0-non 1-charg 2-wave 3-comb
   ISYM   =      0    0-nonsym 1-usesym 2-fastsym
   LCORR  =      T    Harris-Foulkes like correction to forces

   POTIM  = 0.5000    time-step for ionic-motion
   TEIN   =    0.0    initial temperature
   TEBEG  =    0.0;   TEEND  =   0.0 temperature during run
   SMASS  =  -3.00    Nose mass-parameter (am)
   estimated Nose-frequenzy (Omega)   =  0.10E-29 period in steps =****** mass=  -0.189E-27a.u.
   SCALEE = 1.0000    scale energy and forces
   NPACO  =    256;   APACO  = 16.0  distance and # of slots for P.C.
   PSTRESS=    0.0 pullay stress

  Mass of Ions in am
   POMASS =  54.94 16.00
  Ionic Valenz
   ZVAL   =  13.00  6.00
  Atomic Wigner-Seitz radii
   RWIGS  =  -1.00 -1.00
  virtual crystal weights 
   VCA    =   1.00  1.00
   NELECT =     100.0000    total number of electrons
   NUPDOWN=      -1.0000    fix difference up-down

 DOS related values:
   EMIN   =  10.00;   EMAX   =-10.00  energy-range for DOS
   EFERMI =   0.00
   ISMEAR =     0;   SIGMA  =   0.01  broadening in eV -4-tet -1-fermi 0-gaus

 Electronic relaxation 2 (details)
   IALGO  =     68    algorithm
   LDIAG  =      T    sub-space diagonalisation (order eigenvalues)
   LSUBROT=      F    optimize rotation matrix (better conditioning)
   TURBO    =      0    0=normal 1=particle mesh
   IRESTART =      0    0=no restart 2=restart with 2 vectors
   NREBOOT  =      0    no. of reboots
   NMIN     =      0    reboot dimension
   EREF     =   0.00    reference energy to select bands
   IMIX   =      4    mixing-type and parameters
     AMIX     =   0.40;   BMIX     =  1.00
     AMIX_MAG =   1.60;   BMIX_MAG =  1.00
     AMIN     =   0.10
     WC   =   100.;   INIMIX=   1;  MIXPRE=   1;  MAXMIX= -45

 Intra band minimization:
   WEIMIN = 0.0000     energy-eigenvalue tresh-hold
   EBREAK =  0.35E-08  absolut break condition
   DEPER  =   0.30     relativ break condition  

   TIME   =   0.40     timestep for ELM

  volume/ion in A,a.u.               =      10.33        69.68
  Fermi-wavevector in a.u.,A,eV,Ry     =   1.524231  2.880378 31.610128  2.323279
  Thomas-Fermi vector in A             =   2.632566
 
 Write flags
   LWAVE        =      T    write WAVECAR
   LDOWNSAMPLE  =      F    k-point downsampling of WAVECAR
   LCHARG       =      T    write CHGCAR
   LVTOT        =      F    write LOCPOT, total local potential
   LVHAR        =      T    write LOCPOT, Hartree potential only
   LELF         =      F    write electronic localiz. function (ELF)
   LORBIT       =      0    0 simple, 1 ext, 2 COOP (PROOUT), +10 PAW based schemes


 Dipole corrections
   LMONO  =      F    monopole corrections only (constant potential shift)
   LDIPOL =      F    correct potential (dipole corrections)
   IDIPOL =      0    1-x, 2-y, 3-z, 4-all directions 
   EPSILON=  1.0000000 bulk dielectric constant

 Exchange correlation treatment:
   GGA     =    PE    GGA type
   LEXCH   =     8    internal setting for exchange type
   VOSKOWN=      0    Vosko Wilk Nusair interpolation
   LHFCALC =     F    Hartree Fock is set to
   LHFONE  =     F    Hartree Fock one center treatment
   AEXX    =    0.0000 exact exchange contribution

 Linear response parameters
   LEPSILON=     F    determine dielectric tensor
   LRPA    =     F    only Hartree local field effects (RPA)
   LNABLA  =     F    use nabla operator in PAW spheres
   LVEL    =     F    velocity operator in full k-point grid
   LINTERFAST=   F  fast interpolation
   KINTER  =     0    interpolate to denser k-point grid
   CSHIFT  =0.1000    complex shift for real part using Kramers Kronig
   OMEGAMAX=  -1.0    maximum frequency
   DEG_THRESHOLD= 0.2000000E-02 threshold for treating states as degnerate
   RTIME   =   -0.100 relaxation time in fs
  (WPLASMAI=    0.000 imaginary part of plasma frequency in eV, 0.658/RTIME)
   DFIELD  = 0.0000000 0.0000000 0.0000000 field for delta impulse in time
 
 Orbital magnetization related:
   ORBITALMAG=     F  switch on orbital magnetization
   LCHIMAG   =     F  perturbation theory with respect to B field
   DQ        =  0.001000  dq finite difference perturbation B field
   LLRAUG    =     F  two centre corrections for induced B field



--------------------------------------------------------------------------------------------------------


 Static calculation
 charge density and potential will be updated during run
 spin polarized calculation
 RMM-DIIS sequential band-by-band and
  variant of blocked Davidson during initial phase
 perform sub-space diagonalisation
    before iterative eigenvector-optimisation
 modified Broyden-mixing scheme, WC =      100.0
 initial mixing is a Kerker type mixing with AMIX =  0.4000 and BMIX =      1.0000
 Hartree-type preconditioning will be used
 using additional bands           22
 reciprocal scheme for non local part
 use partial core corrections
 calculate Harris-corrections to forces 
   (improved forces if not selfconsistent)
 use gradient corrections 
 use of overlap-Matrix (Vanderbilt PP)
 Gauss-broadening in eV      SIGMA  =   0.01


--------------------------------------------------------------------------------------------------------


  energy-cutoff  :      520.00
  volume of cell :      123.90
      direct lattice vectors                 reciprocal lattice vectors
     2.875311631 -0.000003344 -0.000000481     0.347788389  0.000000501 -0.000000005
    -0.000006696  4.651681998  0.000012394     0.000000250  0.214976002 -0.000000447
     0.000000125  0.000019281  9.263551871     0.000000018 -0.000000288  0.107949954

  length of vectors
     2.875311631  4.651681998  9.263551871     0.347788389  0.214976002  0.107949954


 
 old parameters found on file WAVECAR:
  energy-cutoff  :      520.00
  volume of cell :      126.04
      direct lattice vectors                 reciprocal lattice vectors
     2.916331000  0.000000000  0.000000000     0.342896605  0.000000075 -0.000000073
    -0.000001000  4.580966000  0.000145000     0.000000000  0.218294570 -0.000006941
     0.000002000  0.000300000  9.434393000     0.000000000 -0.000003355  0.105995161

  length of vectors

 
 k-points in units of 2pi/SCALE and weight: read from INCAR                         
   0.00000000  0.00000000  0.00000000       0.004
   0.03477884  0.00000005 -0.00000000       0.007
   0.06955768  0.00000010 -0.00000000       0.007
   0.10433652  0.00000015 -0.00000000       0.007
   0.13911536  0.00000020 -0.00000000       0.007
   0.17389419  0.00000025 -0.00000000       0.004
   0.00000004  0.03071086 -0.00000006       0.007
   0.03477887  0.03071091 -0.00000006       0.007
   0.06955771  0.03071096 -0.00000006       0.007
   0.10433655  0.03071101 -0.00000007       0.007
   0.13911539  0.03071106 -0.00000007       0.007
   0.17389423  0.03071111 -0.00000007       0.007
  -0.13911532  0.03071066 -0.00000006       0.007
  -0.10433648  0.03071071 -0.00000006       0.007
  -0.06955764  0.03071076 -0.00000006       0.007
  -0.03477880  0.03071081 -0.00000006       0.007
   0.00000007  0.06142171 -0.00000013       0.007
   0.03477891  0.06142177 -0.00000013       0.007
   0.06955775  0.06142182 -0.00000013       0.007
   0.10433659  0.06142187 -0.00000013       0.007
   0.13911543  0.06142192 -0.00000013       0.007
   0.17389427  0.06142197 -0.00000013       0.007
  -0.13911528  0.06142151 -0.00000013       0.007
  -0.10433645  0.06142156 -0.00000013       0.007
  -0.06955761  0.06142161 -0.00000013       0.007
  -0.03477877  0.06142166 -0.00000013       0.007
   0.00000011  0.09213257 -0.00000019       0.007
   0.03477895  0.09213262 -0.00000019       0.007
   0.06955778  0.09213267 -0.00000019       0.007
   0.10433662  0.09213272 -0.00000019       0.007
   0.13911546  0.09213277 -0.00000019       0.007
   0.17389430  0.09213282 -0.00000019       0.007
  -0.13911525  0.09213237 -0.00000019       0.007
  -0.10433641  0.09213242 -0.00000019       0.007
  -0.06955757  0.09213247 -0.00000019       0.007
  -0.03477873  0.09213252 -0.00000019       0.007
   0.00000000 -0.00000007  0.02698749       0.007
   0.03477884 -0.00000002  0.02698749       0.007
   0.06955768  0.00000003  0.02698749       0.007
   0.10433652  0.00000008  0.02698749       0.007
   0.13911536  0.00000013  0.02698749       0.007
   0.17389420  0.00000018  0.02698749       0.007
  -0.13911535 -0.00000027  0.02698749       0.007
  -0.10433651 -0.00000022  0.02698749       0.007
  -0.06955767 -0.00000017  0.02698749       0.007
  -0.03477883 -0.00000012  0.02698749       0.007
   0.00000004  0.03071079  0.02698742       0.007
   0.03477888  0.03071084  0.02698742       0.007
   0.06955772  0.03071089  0.02698742       0.007
   0.10433656  0.03071094  0.02698742       0.007
   0.13911540  0.03071099  0.02698742       0.007
   0.17389423  0.03071104  0.02698742       0.007
  -0.13911532  0.03071059  0.02698743       0.007
  -0.10433648  0.03071064  0.02698743       0.007
  -0.06955764  0.03071069  0.02698743       0.007
  -0.03477880  0.03071074  0.02698743       0.007
   0.00000008  0.06142164  0.02698736       0.007
   0.03477891  0.06142169  0.02698736       0.007
   0.06955775  0.06142174  0.02698736       0.007
   0.10433659  0.06142179  0.02698736       0.007
   0.13911543  0.06142184  0.02698736       0.007
   0.17389427  0.06142189  0.02698736       0.007
  -0.13911528  0.06142144  0.02698736       0.007
  -0.10433644  0.06142149  0.02698736       0.007
  -0.06955760  0.06142154  0.02698736       0.007
  -0.03477876  0.06142159  0.02698736       0.007
   0.00000011  0.09213250  0.02698730       0.007
   0.03477895  0.09213255  0.02698730       0.007
   0.06955779  0.09213260  0.02698730       0.007
   0.10433663  0.09213265  0.02698730       0.007
   0.13911547  0.09213270  0.02698729       0.007
   0.17389431  0.09213275  0.02698729       0.007
  -0.13911524  0.09213230  0.02698730       0.007
  -0.10433641  0.09213235  0.02698730       0.007
  -0.06955757  0.09213240  0.02698730       0.007
  -0.03477873  0.09213245  0.02698730       0.007
  -0.00000010 -0.09213264  0.02698768       0.007
   0.03477874 -0.09213259  0.02698768       0.007
   0.06955758 -0.09213254  0.02698768       0.007
   0.10433641 -0.09213249  0.02698768       0.007
   0.13911525 -0.09213244  0.02698768       0.007
   0.17389409 -0.09213239  0.02698768       0.007
  -0.13911546 -0.09213284  0.02698768       0.007
  -0.10433662 -0.09213279  0.02698768       0.007
  -0.06955778 -0.09213274  0.02698768       0.007
  -0.03477894 -0.09213269  0.02698768       0.007
  -0.00000007 -0.06142179  0.02698762       0.007
   0.03477877 -0.06142174  0.02698762       0.007
   0.06955761 -0.06142169  0.02698762       0.007
   0.10433645 -0.06142164  0.02698761       0.007
   0.13911529 -0.06142159  0.02698761       0.007
   0.17389413 -0.06142154  0.02698761       0.007
  -0.13911542 -0.06142199  0.02698762       0.007
  -0.10433658 -0.06142194  0.02698762       0.007
  -0.06955774 -0.06142189  0.02698762       0.007
  -0.03477891 -0.06142184  0.02698762       0.007
  -0.00000003 -0.03071093  0.02698755       0.007
   0.03477881 -0.03071088  0.02698755       0.007
   0.06955765 -0.03071083  0.02698755       0.007
   0.10433649 -0.03071078  0.02698755       0.007
   0.13911532 -0.03071073  0.02698755       0.007
   0.17389416 -0.03071068  0.02698755       0.007
  -0.13911539 -0.03071113  0.02698755       0.007
  -0.10433655 -0.03071108  0.02698755       0.007
  -0.06955771 -0.03071103  0.02698755       0.007
  -0.03477887 -0.03071098  0.02698755       0.007
   0.00000001 -0.00000014  0.05397498       0.004
   0.03477885 -0.00000009  0.05397498       0.007
   0.06955769 -0.00000004  0.05397498       0.007
   0.10433653  0.00000001  0.05397498       0.007
   0.13911536  0.00000006  0.05397498       0.007
   0.17389420  0.00000011  0.05397497       0.004
   0.00000004  0.03071071  0.05397491       0.007
   0.03477888  0.03071076  0.05397491       0.007
   0.06955772  0.03071081  0.05397491       0.007
   0.10433656  0.03071086  0.05397491       0.007
   0.13911540  0.03071091  0.05397491       0.007
   0.17389424  0.03071096  0.05397491       0.007
  -0.13911531  0.03071051  0.05397492       0.007
  -0.10433647  0.03071056  0.05397491       0.007
  -0.06955763  0.03071061  0.05397491       0.007
  -0.03477879  0.03071066  0.05397491       0.007
   0.00000008  0.06142157  0.05397485       0.007
   0.03477892  0.06142162  0.05397485       0.007
   0.06955776  0.06142167  0.05397485       0.007
   0.10433660  0.06142172  0.05397485       0.007
   0.13911544  0.06142177  0.05397485       0.007
   0.17389427  0.06142182  0.05397485       0.007
  -0.13911528  0.06142137  0.05397485       0.007
  -0.10433644  0.06142142  0.05397485       0.007
  -0.06955760  0.06142147  0.05397485       0.007
  -0.03477876  0.06142152  0.05397485       0.007
   0.00000012  0.09213243  0.05397479       0.007
   0.03477896  0.09213248  0.05397478       0.007
   0.06955779  0.09213253  0.05397478       0.007
   0.10433663  0.09213258  0.05397478       0.007
   0.13911547  0.09213263  0.05397478       0.007
   0.17389431  0.09213268  0.05397478       0.007
  -0.13911524  0.09213223  0.05397479       0.007
  -0.10433640  0.09213228  0.05397479       0.007
  -0.06955756  0.09213233  0.05397479       0.007
  -0.03477872  0.09213238  0.05397479       0.007
 
 k-points in reciprocal lattice and weights: read from INCAR                         
   0.00000000  0.00000000  0.00000000       0.004
   0.10000000  0.00000000  0.00000000       0.007
   0.20000000  0.00000000  0.00000000       0.007
   0.30000000  0.00000000  0.00000000       0.007
   0.40000000  0.00000000  0.00000000       0.007
   0.50000000  0.00000000  0.00000000       0.004
  -0.00000000  0.14285714  0.00000000       0.007
   0.10000000  0.14285714 -0.00000000       0.007
   0.20000000  0.14285714  0.00000000       0.007
   0.30000000  0.14285714 -0.00000000       0.007
   0.40000000  0.14285714  0.00000000       0.007
   0.50000000  0.14285714  0.00000000       0.007
  -0.40000000  0.14285714 -0.00000000       0.007
  -0.30000000  0.14285714  0.00000000       0.007
  -0.20000000  0.14285714 -0.00000000       0.007
  -0.10000000  0.14285714  0.00000000       0.007
  -0.00000000  0.28571429  0.00000000       0.007
   0.10000000  0.28571429  0.00000000       0.007
   0.20000000  0.28571429  0.00000000       0.007
   0.30000000  0.28571429 -0.00000000       0.007
   0.40000000  0.28571429  0.00000000       0.007
   0.50000000  0.28571429  0.00000000       0.007
  -0.40000000  0.28571429 -0.00000000       0.007
  -0.30000000  0.28571429  0.00000000       0.007
  -0.20000000  0.28571429  0.00000000       0.007
  -0.10000000  0.28571429 -0.00000000       0.007
   0.00000000  0.42857143  0.00000000       0.007
   0.10000000  0.42857143  0.00000000       0.007
   0.20000000  0.42857143 -0.00000000       0.007
   0.30000000  0.42857143 -0.00000000       0.007
   0.40000000  0.42857143  0.00000000       0.007
   0.50000000  0.42857143  0.00000000       0.007
  -0.40000000  0.42857143 -0.00000000       0.007
  -0.30000000  0.42857143  0.00000000       0.007
  -0.20000000  0.42857143 -0.00000000       0.007
  -0.10000000  0.42857143  0.00000000       0.007
  -0.00000000  0.00000000  0.25000000       0.007
   0.10000000  0.00000000  0.25000000       0.007
   0.20000000  0.00000000  0.25000000       0.007
   0.30000000  0.00000000  0.25000000       0.007
   0.40000000  0.00000000  0.25000000       0.007
   0.50000000  0.00000000  0.25000000       0.007
  -0.40000000 -0.00000000  0.25000000       0.007
  -0.30000000  0.00000000  0.25000000       0.007
  -0.20000000  0.00000000  0.25000000       0.007
  -0.10000000 -0.00000000  0.25000000       0.007
   0.00000000  0.14285714  0.25000000       0.007
   0.10000000  0.14285714  0.25000000       0.007
   0.20000000  0.14285714  0.25000000       0.007
   0.30000000  0.14285714  0.25000000       0.007
   0.40000000  0.14285714  0.25000000       0.007
   0.50000000  0.14285714  0.25000000       0.007
  -0.40000000  0.14285714  0.25000000       0.007
  -0.30000000  0.14285714  0.25000000       0.007
  -0.20000000  0.14285714  0.25000000       0.007
  -0.10000000  0.14285714  0.25000000       0.007
   0.00000000  0.28571429  0.25000000       0.007
   0.10000000  0.28571429  0.25000000       0.007
   0.20000000  0.28571429  0.25000000       0.007
   0.30000000  0.28571429  0.25000000       0.007
   0.40000000  0.28571429  0.25000000       0.007
   0.50000000  0.28571429  0.25000000       0.007
  -0.40000000  0.28571429  0.25000000       0.007
  -0.30000000  0.28571429  0.25000000       0.007
  -0.20000000  0.28571429  0.25000000       0.007
  -0.10000000  0.28571429  0.25000000       0.007
  -0.00000000  0.42857143  0.25000000       0.007
   0.10000000  0.42857143  0.25000000       0.007
   0.20000000  0.42857143  0.25000000       0.007
   0.30000000  0.42857143  0.25000000       0.007
   0.40000000  0.42857143  0.25000000       0.007
   0.50000000  0.42857143  0.25000000       0.007
  -0.40000000  0.42857143  0.25000000       0.007
  -0.30000000  0.42857143  0.25000000       0.007
  -0.20000000  0.42857143  0.25000000       0.007
  -0.10000000  0.42857143  0.25000000       0.007
  -0.00000000 -0.42857143  0.25000000       0.007
   0.10000000 -0.42857143  0.25000000       0.007
   0.20000000 -0.42857143  0.25000000       0.007
   0.30000000 -0.42857143  0.25000000       0.007
   0.40000000 -0.42857143  0.25000000       0.007
   0.50000000 -0.42857143  0.25000000       0.007
  -0.40000000 -0.42857143  0.25000000       0.007
  -0.30000000 -0.42857143  0.25000000       0.007
  -0.20000000 -0.42857143  0.25000000       0.007
  -0.10000000 -0.42857143  0.25000000       0.007
   0.00000000 -0.28571429  0.25000000       0.007
   0.10000000 -0.28571429  0.25000000       0.007
   0.20000000 -0.28571429  0.25000000       0.007
   0.30000000 -0.28571429  0.25000000       0.007
   0.40000000 -0.28571429  0.25000000       0.007
   0.50000000 -0.28571429  0.25000000       0.007
  -0.40000000 -0.28571429  0.25000000       0.007
  -0.30000000 -0.28571429  0.25000000       0.007
  -0.20000000 -0.28571429  0.25000000       0.007
  -0.10000000 -0.28571429  0.25000000       0.007
   0.00000000 -0.14285714  0.25000000       0.007
   0.10000000 -0.14285714  0.25000000       0.007
   0.20000000 -0.14285714  0.25000000       0.007
   0.30000000 -0.14285714  0.25000000       0.007
   0.40000000 -0.14285714  0.25000000       0.007
   0.50000000 -0.14285714  0.25000000       0.007
  -0.40000000 -0.14285714  0.25000000       0.007
  -0.30000000 -0.14285714  0.25000000       0.007
  -0.20000000 -0.14285714  0.25000000       0.007
  -0.10000000 -0.14285714  0.25000000       0.007
  -0.00000000  0.00000000  0.50000000       0.004
   0.10000000 -0.00000000  0.50000000       0.007
   0.20000000  0.00000000  0.50000000       0.007
   0.30000000  0.00000000  0.50000000       0.007
   0.40000000  0.00000000  0.50000000       0.007
   0.50000000  0.00000000  0.50000000       0.004
  -0.00000000  0.14285714  0.50000000       0.007
   0.10000000  0.14285714  0.50000000       0.007
   0.20000000  0.14285714  0.50000000       0.007
   0.30000000  0.14285714  0.50000000       0.007
   0.40000000  0.14285714  0.50000000       0.007
   0.50000000  0.14285714  0.50000000       0.007
  -0.40000000  0.14285714  0.50000000       0.007
  -0.30000000  0.14285714  0.50000000       0.007
  -0.20000000  0.14285714  0.50000000       0.007
  -0.10000000  0.14285714  0.50000000       0.007
   0.00000000  0.28571429  0.50000000       0.007
   0.10000000  0.28571429  0.50000000       0.007
   0.20000000  0.28571429  0.50000000       0.007
   0.30000000  0.28571429  0.50000000       0.007
   0.40000000  0.28571429  0.50000000       0.007
   0.50000000  0.28571429  0.50000000       0.007
  -0.40000000  0.28571429  0.50000000       0.007
  -0.30000000  0.28571429  0.50000000       0.007
  -0.20000000  0.28571429  0.50000000       0.007
  -0.10000000  0.28571429  0.50000000       0.007
   0.00000000  0.42857143  0.50000000       0.007
   0.10000000  0.42857143  0.50000000       0.007
   0.20000000  0.42857143  0.50000000       0.007
   0.30000000  0.42857143  0.50000000       0.007
   0.40000000  0.42857143  0.50000000       0.007
   0.50000000  0.42857143  0.50000000       0.007
  -0.40000000  0.42857143  0.50000000       0.007
  -0.30000000  0.42857143  0.50000000       0.007
  -0.20000000  0.42857143  0.50000000       0.007
  -0.10000000  0.42857143  0.50000000       0.007
 
 position of ions in fractional coordinates (direct lattice) 
   0.24999934  0.03511357  0.86540186
   0.74999935  0.96489059  0.13459893
   0.75000091  0.53511210  0.63459890
   0.25000045  0.46488653  0.36540153
   0.25000071  0.71267705  0.53058355
   0.74999975  0.21267748  0.96941626
   0.24999903  0.78732357  0.03058459
   0.75000019  0.28732365  0.46941768
   0.24999964  0.15763380  0.22636992
   0.25000066  0.34236557  0.72636918
   0.75000552  0.65763100  0.27362860
   0.74999444  0.84236609  0.77362999
 
 position of ions in cartesian coordinates  (Angst):
   0.71882590  0.16335299  8.01669532
   2.15647542  4.48836429  1.24687581
   2.15648283  2.48918107  5.87864612
   0.71882614  2.16251053  3.38492170
   0.71882525  3.31515639  4.91509698
   2.15648169  0.98932418  8.98024006
   0.71881984  3.66237863  0.28333161
   2.15648242  1.33654478  4.34847824
   0.71882586  0.73326583  2.09699129
   0.71882761  1.59258892  6.72876266
   2.15649523  3.05909307  2.53478052
   2.15646218  3.91843160  7.16657166
 


--------------------------------------------------------------------------------------------------------


 k-point  1 :   0.0000 0.0000 0.0000  plane waves:    3321
 k-point  2 :   0.1000 0.0000 0.0000  plane waves:    3333
 k-point  3 :   0.2000 0.0000 0.0000  plane waves:    3353
 k-point  4 :   0.3000 0.0000 0.0000  plane waves:    3351
 k-point  5 :   0.4000 0.0000 0.0000  plane waves:    3334
 k-point  6 :   0.5000 0.0000 0.0000  plane waves:    3366
 k-point  7 :  -0.0000 0.1429 0.0000  plane waves:    3341
 k-point  8 :   0.1000 0.1429-0.0000  plane waves:    3337
 k-point  9 :   0.2000 0.1429 0.0000  plane waves:    3345
 k-point 10 :   0.3000 0.1429-0.0000  plane waves:    3338
 k-point 11 :   0.4000 0.1429 0.0000  plane waves:    3339
 k-point 12 :   0.5000 0.1429 0.0000  plane waves:    3354
 k-point 13 :  -0.4000 0.1429-0.0000  plane waves:    3339
 k-point 14 :  -0.3000 0.1429 0.0000  plane waves:    3338
 k-point 15 :  -0.2000 0.1429-0.0000  plane waves:    3345
 k-point 16 :  -0.1000 0.1429 0.0000  plane waves:    3337
 k-point 17 :  -0.0000 0.2857 0.0000  plane waves:    3349
 k-point 18 :   0.1000 0.2857 0.0000  plane waves:    3340
 k-point 19 :   0.2000 0.2857 0.0000  plane waves:    3347
 k-point 20 :   0.3000 0.2857-0.0000  plane waves:    3330
 k-point 21 :   0.4000 0.2857 0.0000  plane waves:    3319
 k-point 22 :   0.5000 0.2857 0.0000  plane waves:    3314
 k-point 23 :  -0.4000 0.2857-0.0000  plane waves:    3319
 k-point 24 :  -0.3000 0.2857 0.0000  plane waves:    3330
 k-point 25 :  -0.2000 0.2857 0.0000  plane waves:    3347
 k-point 26 :  -0.1000 0.2857-0.0000  plane waves:    3340
 k-point 27 :   0.0000 0.4286 0.0000  plane waves:    3358
 k-point 28 :   0.1000 0.4286 0.0000  plane waves:    3334
 k-point 29 :   0.2000 0.4286-0.0000  plane waves:    3317
 k-point 30 :   0.3000 0.4286-0.0000  plane waves:    3331
 k-point 31 :   0.4000 0.4286 0.0000  plane waves:    3327
 k-point 32 :   0.5000 0.4286 0.0000  plane waves:    3318
 k-point 33 :  -0.4000 0.4286-0.0000  plane waves:    3327
 k-point 34 :  -0.3000 0.4286 0.0000  plane waves:    3331
 k-point 35 :  -0.2000 0.4286-0.0000  plane waves:    3317
 k-point 36 :  -0.1000 0.4286 0.0000  plane waves:    3334
 k-point 37 :  -0.0000 0.0000 0.2500  plane waves:    3348
 k-point 38 :   0.1000 0.0000 0.2500  plane waves:    3351
 k-point 39 :   0.2000 0.0000 0.2500  plane waves:    3340
 k-point 40 :   0.3000 0.0000 0.2500  plane waves:    3336
 k-point 41 :   0.4000 0.0000 0.2500  plane waves:    3333
 k-point 42 :   0.5000 0.0000 0.2500  plane waves:    3340
 k-point 43 :  -0.4000-0.0000 0.2500  plane waves:    3333
 k-point 44 :  -0.3000 0.0000 0.2500  plane waves:    3336
 k-point 45 :  -0.2000 0.0000 0.2500  plane waves:    3340
 k-point 46 :  -0.1000-0.0000 0.2500  plane waves:    3351
 k-point 47 :   0.0000 0.1429 0.2500  plane waves:    3351
 k-point 48 :   0.1000 0.1429 0.2500  plane waves:    3353
 k-point 49 :   0.2000 0.1429 0.2500  plane waves:    3340
 k-point 50 :   0.3000 0.1429 0.2500  plane waves:    3331
 k-point 51 :   0.4000 0.1429 0.2500  plane waves:    3331
 k-point 52 :   0.5000 0.1429 0.2500  plane waves:    3338
 k-point 53 :  -0.4000 0.1429 0.2500  plane waves:    3331
 k-point 54 :  -0.3000 0.1429 0.2500  plane waves:    3331
 k-point 55 :  -0.2000 0.1429 0.2500  plane waves:    3340
 k-point 56 :  -0.1000 0.1429 0.2500  plane waves:    3353
 k-point 57 :   0.0000 0.2857 0.2500  plane waves:    3340
 k-point 58 :   0.1000 0.2857 0.2500  plane waves:    3351
 k-point 59 :   0.2000 0.2857 0.2500  plane waves:    3338
 k-point 60 :   0.3000 0.2857 0.2500  plane waves:    3328
 k-point 61 :   0.4000 0.2857 0.2500  plane waves:    3328
 k-point 62 :   0.5000 0.2857 0.2500  plane waves:    3314
 k-point 63 :  -0.4000 0.2857 0.2500  plane waves:    3328
 k-point 64 :  -0.3000 0.2857 0.2500  plane waves:    3328
 k-point 65 :  -0.2000 0.2857 0.2500  plane waves:    3338
 k-point 66 :  -0.1000 0.2857 0.2500  plane waves:    3351
 k-point 67 :  -0.0000 0.4286 0.2500  plane waves:    3350
 k-point 68 :   0.1000 0.4286 0.2500  plane waves:    3344
 k-point 69 :   0.2000 0.4286 0.2500  plane waves:    3339
 k-point 70 :   0.3000 0.4286 0.2500  plane waves:    3324
 k-point 71 :   0.4000 0.4286 0.2500  plane waves:    3316
 k-point 72 :   0.5000 0.4286 0.2500  plane waves:    3330
 k-point 73 :  -0.4000 0.4286 0.2500  plane waves:    3316
 k-point 74 :  -0.3000 0.4286 0.2500  plane waves:    3324
 k-point 75 :  -0.2000 0.4286 0.2500  plane waves:    3339
 k-point 76 :  -0.1000 0.4286 0.2500  plane waves:    3344
 k-point 77 :  -0.0000-0.4286 0.2500  plane waves:    3350
 k-point 78 :   0.1000-0.4286 0.2500  plane waves:    3344
 k-point 79 :   0.2000-0.4286 0.2500  plane waves:    3339
 k-point 80 :   0.3000-0.4286 0.2500  plane waves:    3324
 k-point 81 :   0.4000-0.4286 0.2500  plane waves:    3316
 k-point 82 :   0.5000-0.4286 0.2500  plane waves:    3330
 k-point 83 :  -0.4000-0.4286 0.2500  plane waves:    3316
 k-point 84 :  -0.3000-0.4286 0.2500  plane waves:    3324
 k-point 85 :  -0.2000-0.4286 0.2500  plane waves:    3339
 k-point 86 :  -0.1000-0.4286 0.2500  plane waves:    3344
 k-point 87 :   0.0000-0.2857 0.2500  plane waves:    3340
 k-point 88 :   0.1000-0.2857 0.2500  plane waves:    3351
 k-point 89 :   0.2000-0.2857 0.2500  plane waves:    3338
 k-point 90 :   0.3000-0.2857 0.2500  plane waves:    3328
 k-point 91 :   0.4000-0.2857 0.2500  plane waves:    3328
 k-point 92 :   0.5000-0.2857 0.2500  plane waves:    3314
 k-point 93 :  -0.4000-0.2857 0.2500  plane waves:    3328
 k-point 94 :  -0.3000-0.2857 0.2500  plane waves:    3328
 k-point 95 :  -0.2000-0.2857 0.2500  plane waves:    3338
 k-point 96 :  -0.1000-0.2857 0.2500  plane waves:    3351
 k-point 97 :   0.0000-0.1429 0.2500  plane waves:    3351
 k-point 98 :   0.1000-0.1429 0.2500  plane waves:    3353
 k-point 99 :   0.2000-0.1429 0.2500  plane waves:    3339
 k-point ** :   0.3000-0.1429 0.2500  plane waves:    3331
 k-point ** :   0.4000-0.1429 0.2500  plane waves:    3331
 k-point ** :   0.5000-0.1429 0.2500  plane waves:    3338
 k-point ** :  -0.4000-0.1429 0.2500  plane waves:    3331
 k-point ** :  -0.3000-0.1429 0.2500  plane waves:    3331
 k-point ** :  -0.2000-0.1429 0.2500  plane waves:    3339
 k-point ** :  -0.1000-0.1429 0.2500  plane waves:    3353
 k-point ** :  -0.0000 0.0000 0.5000  plane waves:    3362
 k-point ** :   0.1000-0.0000 0.5000  plane waves:    3356
 k-point ** :   0.2000 0.0000 0.5000  plane waves:    3346
 k-point ** :   0.3000 0.0000 0.5000  plane waves:    3328
 k-point ** :   0.4000 0.0000 0.5000  plane waves:    3348
 k-point ** :   0.5000 0.0000 0.5000  plane waves:    3308
 k-point ** :  -0.0000 0.1429 0.5000  plane waves:    3342
 k-point ** :   0.1000 0.1429 0.5000  plane waves:    3360
 k-point ** :   0.2000 0.1429 0.5000  plane waves:    3342
 k-point ** :   0.3000 0.1429 0.5000  plane waves:    3320
 k-point ** :   0.4000 0.1429 0.5000  plane waves:    3338
 k-point ** :   0.5000 0.1429 0.5000  plane waves:    3328
 k-point ** :  -0.4000 0.1429 0.5000  plane waves:    3338
 k-point ** :  -0.3000 0.1429 0.5000  plane waves:    3320
 k-point ** :  -0.2000 0.1429 0.5000  plane waves:    3342
 k-point ** :  -0.1000 0.1429 0.5000  plane waves:    3360
 k-point ** :   0.0000 0.2857 0.5000  plane waves:    3360
 k-point ** :   0.1000 0.2857 0.5000  plane waves:    3336
 k-point ** :   0.2000 0.2857 0.5000  plane waves:    3346
 k-point ** :   0.3000 0.2857 0.5000  plane waves:    3326
 k-point ** :   0.4000 0.2857 0.5000  plane waves:    3326
 k-point ** :   0.5000 0.2857 0.5000  plane waves:    3344
 k-point ** :  -0.4000 0.2857 0.5000  plane waves:    3326
 k-point ** :  -0.3000 0.2857 0.5000  plane waves:    3326
 k-point ** :  -0.2000 0.2857 0.5000  plane waves:    3346
 k-point ** :  -0.1000 0.2857 0.5000  plane waves:    3336
 k-point ** :   0.0000 0.4286 0.5000  plane waves:    3334
 k-point ** :   0.1000 0.4286 0.5000  plane waves:    3352
 k-point ** :   0.2000 0.4286 0.5000  plane waves:    3342
 k-point ** :   0.3000 0.4286 0.5000  plane waves:    3334
 k-point ** :   0.4000 0.4286 0.5000  plane waves:    3318
 k-point ** :   0.5000 0.4286 0.5000  plane waves:    3324
 k-point ** :  -0.4000 0.4286 0.5000  plane waves:    3318
 k-point ** :  -0.3000 0.4286 0.5000  plane waves:    3334
 k-point ** :  -0.2000 0.4286 0.5000  plane waves:    3342
 k-point ** :  -0.1000 0.4286 0.5000  plane waves:    3352

 maximum and minimum number of plane-waves per node :       860      812

 maximum number of plane-waves:      3366
 maximum index in each direction: 
   IXMAX=    5   IYMAX=    9   IZMAX=   17
   IXMIN=   -5   IYMIN=   -9   IZMIN=  -17


 parallel 3D FFT for wavefunctions:
    minimum data exchange during FFTs selected (reduces bandwidth)
 parallel 3D FFT for charge:
    minimum data exchange during FFTs selected (reduces bandwidth)


 total amount of memory used by VASP MPI-rank0   142888. kBytes
=======================================================================

   base      :      30000. kBytes
   nonl-proj :      35006. kBytes
   fftplans  :       1492. kBytes
   grid      :       3666. kBytes
   one-center:         93. kBytes
   wavefun   :      72631. kBytes
 
     INWAV:  cpu time    4.1923: real time    4.6263
 Broyden mixing: mesh for mixing (old mesh)
   NGX = 11   NGY = 17   NGZ = 35
  (NGX  = 48   NGY  = 72   NGZ  =140)
  gives a total of   6545 points

 charge density for first step will be calculated from the start-wavefunctions


--------------------------------------------------------------------------------------------------------


 Maximum index for augmentation-charges          927 (set IRDMAX)


--------------------------------------------------------------------------------------------------------


 initial charge from wavefunction
 First call to EWALD:  gamma=   0.356
 Maximum number of real-space cells 4x 3x 2
 Maximum number of reciprocal cells 2x 3x 5

    FEWALD:  cpu time    0.0024: real time    0.0025


--------------------------------------- Iteration      1(   1)  ---------------------------------------


    POTLOK:  cpu time    0.0417: real time    0.0659
    SETDIJ:  cpu time    0.3895: real time    0.4139
     EDDAV:  cpu time   19.7513: real time   24.8370
       DOS:  cpu time    0.0047: real time    0.0047
    CHARGE:  cpu time    0.7985: real time    1.0683
    MIXING:  cpu time    0.0015: real time    0.0015
    --------------------------------------------
      LOOP:  cpu time   20.9872: real time   26.3914

 eigenvalue-minimisations  : 41952
 total energy-change (2. order) :-0.9561084E+02  (-0.1497391E-02)
 number of electron     100.0000035 magnetization      12.0000015
 augmentation part       33.7100437 magnetization       8.2863347

 Broyden mixing:
  rms(total) = 0.12072E-02    rms(broyden)= 0.11426E-02
  rms(prec ) = 0.13995E-02
  weight for this iteration     100.00

 Free energy of the ion-electron system (eV)
  ---------------------------------------------------
  alpha Z        PSCENC =       448.99778957
  Ewald energy   TEWEN  =     -7469.44914856
  -Hartree energ DENC   =     -3614.87456155
  -exchange      EXHF   =         0.00000000
  -V(xc)+E(xc)   XCENC  =       499.07038910
  PAW double counting   =     12014.93343125   -12254.22392895
  entropy T*S    EENTRO =        -0.00000000
  eigenvalues    EBANDS =     -1279.97118750
  atomic energy  EATOM  =     11559.90638050
  Solvation  Ediel_sol  =         0.00000000
  ---------------------------------------------------
  free energy    TOTEN  =       -95.61083612 eV

  energy without entropy =      -95.61083612  energy(sigma->0) =      -95.61083612


--------------------------------------------------------------------------------------------------------




--------------------------------------- Iteration      1(   2)  ---------------------------------------


    POTLOK:  cpu time    0.0525: real time    0.0531
    SETDIJ:  cpu time    0.4082: real time    0.4227
    EDDIAG:  cpu time    4.2995: real time    5.7490
  RMM-DIIS:  cpu time   11.0588: real time   14.6170
    ORTHCH:  cpu time    0.7380: real time    1.0417
       DOS:  cpu time    0.0022: real time    0.0044
    CHARGE:  cpu time    0.7859: real time    1.0733
    MIXING:  cpu time    0.0015: real time    0.0015
    --------------------------------------------
      LOOP:  cpu time   17.3466: real time   22.9626

 eigenvalue-minimisations  : 46043
 total energy-change (2. order) :-0.1590979E-05  (-0.1478621E-05)
 number of electron     100.0000035 magnetization      12.0000015
 augmentation part       33.7100627 magnetization       8.2863502

 Broyden mixing:
  rms(total) = 0.18893E-02    rms(broyden)= 0.18873E-02
  rms(prec ) = 0.22384E-02
  weight for this iteration     100.00

 eigenvalues of (default mixing * dielectric matrix)
  average eigenvalue GAMMA=   0.3104
  0.3104

 Free energy of the ion-electron system (eV)
  ---------------------------------------------------
  alpha Z        PSCENC =       448.99778957
  Ewald energy   TEWEN  =     -7469.44914856
  -Hartree energ DENC   =     -3614.87493207
  -exchange      EXHF   =         0.00000000
  -V(xc)+E(xc)   XCENC  =       499.07034281
  PAW double counting   =     12014.88266360   -12254.17393352
  entropy T*S    EENTRO =        -0.00000000
  eigenvalues    EBANDS =     -1279.97000004
  atomic energy  EATOM  =     11559.90638050
  Solvation  Ediel_sol  =         0.00000000
  ---------------------------------------------------
  free energy    TOTEN  =       -95.61083771 eV

  energy without entropy =      -95.61083771  energy(sigma->0) =      -95.61083771


--------------------------------------------------------------------------------------------------------




--------------------------------------- Iteration      1(   3)  ---------------------------------------


    POTLOK:  cpu time    0.0316: real time    0.0533
    SETDIJ:  cpu time    0.3773: real time    0.4228
    EDDIAG:  cpu time    5.5892: real time    5.7891
WARNING in EDDRMM: call to ZHEGV failed, returncode =   8  4     18
  RMM-DIIS:  cpu time   11.1574: real time   11.1804
    ORTHCH:  cpu time    1.0596: real time    1.0613
       DOS:  cpu time    0.0030: real time    0.0030
    CHARGE:  cpu time    0.9977: real time    0.9993
    MIXING:  cpu time    0.0013: real time    0.0013
    --------------------------------------------
      LOOP:  cpu time   19.2171: real time   19.5104

 eigenvalue-minimisations  : 33499
 total energy-change (2. order) : 0.2194516E-05  (-0.2009012E-06)
 number of electron     100.0000035 magnetization      12.0000015
 augmentation part       33.7100291 magnetization       8.2863433

 Broyden mixing:
  rms(total) = 0.35183E-03    rms(broyden)= 0.35122E-03
  rms(prec ) = 0.37631E-03
  weight for this iteration     100.00

 eigenvalues of (default mixing * dielectric matrix)
  average eigenvalue GAMMA=   0.6999
  1.0298  0.3701

 Free energy of the ion-electron system (eV)
  ---------------------------------------------------
  alpha Z        PSCENC =       448.99778957
  Ewald energy   TEWEN  =     -7469.44914856
  -Hartree energ DENC   =     -3614.87554800
  -exchange      EXHF   =         0.00000000
  -V(xc)+E(xc)   XCENC  =       499.07040323
  PAW double counting   =     12014.88264159   -12254.17400167
  entropy T*S    EENTRO =        -0.00000000
  eigenvalues    EBANDS =     -1279.96935219
  atomic energy  EATOM  =     11559.90638050
  Solvation  Ediel_sol  =         0.00000000
  ---------------------------------------------------
  free energy    TOTEN  =       -95.61083551 eV

  energy without entropy =      -95.61083551  energy(sigma->0) =      -95.61083551


--------------------------------------------------------------------------------------------------------




--------------------------------------- Iteration      1(   4)  ---------------------------------------


    POTLOK:  cpu time    0.0509: real time    0.0513
    SETDIJ:  cpu time    0.4326: real time    0.4330
    EDDIAG:  cpu time    5.7114: real time    5.7217
WARNING in EDDRMM: call to ZHEGV failed, returncode =   8  4     18
WARNING in EDDRMM: call to ZHEGV failed, returncode =   8  4     18
  RMM-DIIS:  cpu time    8.9959: real time    9.0149
    ORTHCH:  cpu time    1.0134: real time    1.0152
       DOS:  cpu time    0.0029: real time    0.0029
    --------------------------------------------
      LOOP:  cpu time   16.2071: real time   16.2389

 eigenvalue-minimisations  : 24337
 total energy-change (2. order) :-0.6002792E-06  (-0.2836138E-07)
 number of electron     100.0000035 magnetization      12.0000015
 augmentation part       33.7100291 magnetization       8.2863433

 Free energy of the ion-electron system (eV)
  ---------------------------------------------------
  alpha Z        PSCENC =       448.99778957
  Ewald energy   TEWEN  =     -7469.44914856
  -Hartree energ DENC   =     -3614.87467058
  -exchange      EXHF   =         0.00000000
  -V(xc)+E(xc)   XCENC  =       499.07045521
  PAW double counting   =     12014.88944667   -12254.18095077
  entropy T*S    EENTRO =        -0.00000000
  eigenvalues    EBANDS =     -1279.97013816
  atomic energy  EATOM  =     11559.90638050
  Solvation  Ediel_sol  =         0.00000000
  ---------------------------------------------------
  free energy    TOTEN  =       -95.61083611 eV

  energy without entropy =      -95.61083611  energy(sigma->0) =      -95.61083611


--------------------------------------------------------------------------------------------------------




 average (electrostatic) potential at core
  the test charge radii are     0.9577  0.7215
  (the norm of the test charge is              1.0000)
       1 -71.8904       2 -71.8903       3 -71.8903       4 -71.8903       5 -71.3687
       6 -71.3687       7 -71.3687       8 -71.3687       9 -71.1041      10 -71.1041
      11 -71.1041      12 -71.1041
 
 
 
 E-fermi :   4.0428     XC(G=0): -11.2297     alpha+bet :-11.4873


 spin component 1

 k-point     1 :       0.0000    0.0000    0.0000
  band No.  band energies     occupation 
      1     -46.5872      1.00000
      2     -46.5781      1.00000
      3     -46.5776      1.00000
      4     -46.5750      1.00000
      5     -46.5628      1.00000
      6     -46.5596      1.00000
      7     -46.5257      1.00000
      8     -46.5240      1.00000
      9     -46.5005      1.00000
     10     -46.4957      1.00000
     11     -46.4920      1.00000
     12     -46.4888      1.00000
     13     -15.6557      1.00000
     14     -15.0590      1.00000
     15     -14.7753      1.00000
     16     -13.9975      1.00000
     17     -13.7456      1.00000
     18     -13.6741      1.00000
     19     -13.6013      1.00000
     20     -13.5643      1.00000
     21      -3.3310      1.00000
     22      -2.6791      1.00000
     23      -2.5902      1.00000
     24      -2.4081      1.00000
     25      -1.9670      1.00000
     26      -1.7162      1.00000
     27      -1.6602      1.00000
     28      -1.6089      1.00000
     29      -1.3957      1.00000
     30      -1.3867      1.00000
     31      -1.2435      1.00000
     32      -0.5622      1.00000
     33      -0.4643      1.00000
     34       0.2396      1.00000
     35       0.5461      1.00000
     36       0.5839      1.00000
     37       0.7224      1.00000
     38       0.8072      1.00000
     39       0.8537      1.00000
     40       1.3373      1.00000
     41       1.5279      1.00000
     42       1.5767      1.00000
     43       1.7265      1.00000
     44       2.1008      1.00000
     45       2.3294      1.00000
     46       2.3353      1.00000
     47       2.4952      1.00000
     48       2.5843      1.00000
     49       2.6286      1.00000
     50       2.6718      1.00000
     51       2.7205      1.00000
     52       2.9016      1.00000
     53       3.0942      1.00000
     54       3.3417      1.00000
     55       3.6217      1.00000
     56       3.8305      1.00000
     57       4.9361      0.00000
     58       5.3686      0.00000
     59       6.3832      0.00000
     60       6.4976      0.00000
     61       6.5013      0.00000
     62       6.6295      0.00000
     63       6.6421      0.00000
     64       7.0732      0.00000
     65      11.0770      0.00000
     66      13.0718      0.00000
     67      13.6992      0.00000
     68      14.7103      0.00000
     69      15.0384      0.00000
     70      16.2024      0.00000
     71      16.4788      0.00000
     72      17.3560      0.00000

 k-point     2 :       0.1000    0.0000    0.0000
  band No.  band energies     occupation 
      1     -46.5879      1.00000
      2     -46.5862      1.00000
      3     -46.5855      1.00000
      4     -46.5823      1.00000
      5     -46.5678      1.00000
      6     -46.5657      1.00000
      7     -46.5245      1.00000
      8     -46.5227      1.00000
      9     -46.4993      1.00000
     10     -46.4957      1.00000
     11     -46.4914      1.00000
     12     -46.4882      1.00000
     13     -15.5624      1.00000
     14     -14.9886      1.00000
     15     -14.7054      1.00000
     16     -13.9655      1.00000
     17     -13.7541      1.00000
     18     -13.6823      1.00000
     19     -13.6246      1.00000
     20     -13.5830      1.00000
     21      -3.1961      1.00000
     22      -2.5669      1.00000
     23      -2.4923      1.00000
     24      -2.3075      1.00000
     25      -1.8889      1.00000
     26      -1.8668      1.00000
     27      -1.8204      1.00000
     28      -1.7126      1.00000
     29      -1.3193      1.00000
     30      -1.2238      1.00000
     31      -1.1762      1.00000
     32      -0.4738      1.00000
     33      -0.3990      1.00000
     34      -0.0530      1.00000
     35       0.3228      1.00000
     36       0.3355      1.00000
     37       0.6821      1.00000
     38       0.8233      1.00000
     39       0.8518      1.00000
     40       1.0937      1.00000
     41       1.3140      1.00000
     42       1.4853      1.00000
     43       1.5879      1.00000
     44       2.2342      1.00000
     45       2.2566      1.00000
     46       2.2842      1.00000
     47       2.4558      1.00000
     48       2.5366      1.00000
     49       2.6888      1.00000
     50       2.8325      1.00000
     51       2.8876      1.00000
     52       2.9204      1.00000
     53       3.2764      1.00000
     54       3.3352      1.00000
     55       3.6492      1.00000
     56       3.8370      1.00000
     57       5.0005      0.00000
     58       5.3934      0.00000
     59       6.1757      0.00000
     60       6.2446      0.00000
     61       6.3827      0.00000
     62       6.4327      0.00000
     63       6.5644      0.00000
     64       7.0123      0.00000
     65      11.4227      0.00000
     66      13.3586      0.00000
     67      13.9407      0.00000
     68      15.0982      0.00000
     69      15.4301      0.00000
     70      16.4873      0.00000
     71      16.7848      0.00000
     72      17.4265      0.00000

 k-point     3 :       0.2000    0.0000    0.0000
  band No.  band energies     occupation 
      1     -46.6130      1.00000
      2     -46.6119      1.00000
      3     -46.6061      1.00000
      4     -46.6018      1.00000
      5     -46.5707      1.00000
      6     -46.5613      1.00000
      7     -46.5225      1.00000
      8     -46.5201      1.00000
      9     -46.4962      1.00000
     10     -46.4957      1.00000
     11     -46.4902      1.00000
     12     -46.4869      1.00000
     13     -15.3000      1.00000
     14     -14.7970      1.00000
     15     -14.5158      1.00000
     16     -13.8945      1.00000
     17     -13.7753      1.00000
     18     -13.7040      1.00000
     19     -13.6905      1.00000
     20     -13.6330      1.00000
     21      -2.8248      1.00000
     22      -2.2790      1.00000
     23      -2.2363      1.00000
     24      -2.0764      1.00000
     25      -2.0172      1.00000
     26      -2.0149      1.00000
     27      -1.8254      1.00000
     28      -1.7021      1.00000
     29      -1.3734      1.00000
     30      -1.0093      1.00000
     31      -0.9373      1.00000
     32      -0.8131      1.00000
     33      -0.6750      1.00000
     34      -0.3882      1.00000
     35       0.1062      1.00000
     36       0.1624      1.00000
     37       0.4098      1.00000
     38       0.6319      1.00000
     39       0.6643      1.00000
     40       0.9591      1.00000
     41       1.1548      1.00000
     42       1.2765      1.00000
     43       1.3335      1.00000
     44       1.9885      1.00000
     45       2.2327      1.00000
     46       2.3964      1.00000
     47       2.4153      1.00000
     48       2.5157      1.00000
     49       2.8487      1.00000
     50       2.8587      1.00000
     51       2.9998      1.00000
     52       3.0306      1.00000
     53       3.2558      1.00000
     54       3.4856      1.00000
     55       3.7374      1.00000
     56       3.8094      1.00000
     57       5.1500      0.00000
     58       5.2286      0.00000
     59       5.6605      0.00000
     60       5.9068      0.00000
     61       6.0450      0.00000
     62       6.2250      0.00000
     63       6.5781      0.00000
     64       6.7825      0.00000
     65      12.3179      0.00000
     66      14.0459      0.00000
     67      14.5211      0.00000
     68      16.0621      0.00000
     69      16.3936      0.00000
     70      17.2267      0.00000
     71      17.5470      0.00000
     72      17.5705      0.00000

 k-point     4 :       0.3000    0.0000    0.0000
  band No.  band energies     occupation 
      1     -46.6434      1.00000
      2     -46.6432      1.00000
      3     -46.6385      1.00000
      4     -46.6341      1.00000
      5     -46.5597      1.00000
      6     -46.5517      1.00000
      7     -46.5221      1.00000
      8     -46.5195      1.00000
      9     -46.4945      1.00000
     10     -46.4924      1.00000
     11     -46.4887      1.00000
     12     -46.4857      1.00000
     13     -14.9205      1.00000
     14     -14.5385      1.00000
     15     -14.2643      1.00000
     16     -13.8555      1.00000
     17     -13.7974      1.00000
     18     -13.7881      1.00000
     19     -13.7332      1.00000
     20     -13.6941      1.00000
     21      -2.3562      1.00000
     22      -2.1669      1.00000
     23      -2.1045      1.00000
     24      -2.0407      1.00000
     25      -1.9639      1.00000
     26      -1.9446      1.00000
     27      -1.9038      1.00000
     28      -1.7791      1.00000
     29      -1.3030      1.00000
     30      -1.1700      1.00000
     31      -1.1404      1.00000
     32      -0.8093      1.00000
     33      -0.5720      1.00000
     34      -0.3950      1.00000
     35      -0.2102      1.00000
     36       0.1752      1.00000
     37       0.3027      1.00000
     38       0.3518      1.00000
     39       0.4420      1.00000
     40       0.9240      1.00000
     41       1.1433      1.00000
     42       1.2108      1.00000
     43       1.2507      1.00000
     44       1.5706      1.00000
     45       2.1105      1.00000
     46       2.1256      1.00000
     47       2.3637      1.00000
     48       2.4880      1.00000
     49       2.7541      1.00000
     50       2.7733      1.00000
     51       2.8000      1.00000
     52       2.9645      1.00000
     53       3.4425      1.00000
     54       3.4885      1.00000
     55       3.7025      1.00000
     56       3.8099      1.00000
     57       4.9710      0.00000
     58       5.2384      0.00000
     59       5.2948      0.00000
     60       5.5458      0.00000
     61       5.9177      0.00000
     62       6.4726      0.00000
     63       6.4775      0.00000
     64       6.6433      0.00000
     65      13.4918      0.00000
     66      14.8450      0.00000
     67      15.1840      0.00000
     68      17.2054      0.00000
     69      17.5116      0.00000
     70      17.7984      0.00000
     71      17.9317      0.00000
     72      18.0728      0.00000

 k-point     5 :       0.4000    0.0000    0.0000
  band No.  band energies     occupation 
      1     -46.6680      1.00000
      2     -46.6666      1.00000
      3     -46.6652      1.00000
      4     -46.6617      1.00000
      5     -46.5463      1.00000
      6     -46.5410      1.00000
      7     -46.5249      1.00000
      8     -46.5242      1.00000
      9     -46.4913      1.00000
     10     -46.4892      1.00000
     11     -46.4876      1.00000
     12     -46.4859      1.00000
     13     -14.5059      1.00000
     14     -14.2838      1.00000
     15     -14.0399      1.00000
     16     -13.9327      1.00000
     17     -13.8987      1.00000
     18     -13.8047      1.00000
     19     -13.7725      1.00000
     20     -13.7430      1.00000
     21      -2.5999      1.00000
     22      -2.4711      1.00000
     23      -2.1054      1.00000
     24      -2.0915      1.00000
     25      -2.0177      1.00000
     26      -1.8402      1.00000
     27      -1.6767      1.00000
     28      -1.5945      1.00000
     29      -1.2527      1.00000
     30      -1.0732      1.00000
     31      -0.9443      1.00000
     32      -0.6406      1.00000
     33      -0.6038      1.00000
     34      -0.2191      1.00000
     35      -0.1617      1.00000
     36       0.1638      1.00000
     37       0.3358      1.00000
     38       0.3465      1.00000
     39       0.6597      1.00000
     40       0.7131      1.00000
     41       0.7978      1.00000
     42       1.2088      1.00000
     43       1.2627      1.00000
     44       1.3739      1.00000
     45       1.8928      1.00000
     46       2.0359      1.00000
     47       2.1037      1.00000
     48       2.2037      1.00000
     49       2.3639      1.00000
     50       2.4182      1.00000
     51       2.6281      1.00000
     52       2.7199      1.00000
     53       3.5713      1.00000
     54       3.5873      1.00000
     55       3.6025      1.00000
     56       3.7988      1.00000
     57       4.9370      0.00000
     58       5.1295      0.00000
     59       5.2654      0.00000
     60       5.3739      0.00000
     61       6.0467      0.00000
     62       6.2670      0.00000
     63       6.7141      0.00000
     64       6.7582      0.00000
     65      14.7402      0.00000
     66      15.5437      0.00000
     67      15.7308      0.00000
     68      17.0588      0.00000
     69      17.6365      0.00000
     70      17.6771      0.00000
     71      17.9929      0.00000
     72      18.3858      0.00000

 k-point     6 :       0.5000    0.0000    0.0000
  band No.  band energies     occupation 
      1     -46.6764      1.00000
      2     -46.6764      1.00000
      3     -46.6739      1.00000
      4     -46.6738      1.00000
      5     -46.5337      1.00000
      6     -46.5337      1.00000
      7     -46.5315      1.00000
      8     -46.5314      1.00000
      9     -46.4879      1.00000
     10     -46.4878      1.00000
     11     -46.4876      1.00000
     12     -46.4875      1.00000
     13     -14.1529      1.00000
     14     -14.1529      1.00000
     15     -14.0843      1.00000
     16     -14.0842      1.00000
     17     -13.8480      1.00000
     18     -13.8480      1.00000
     19     -13.7855      1.00000
     20     -13.7855      1.00000
     21      -2.7395      1.00000
     22      -2.7395      1.00000
     23      -2.0838      1.00000
     24      -2.0837      1.00000
     25      -1.9523      1.00000
     26      -1.9523      1.00000
     27      -1.5081      1.00000
     28      -1.5081      1.00000
     29      -1.0950      1.00000
     30      -1.0950      1.00000
     31      -0.7956      1.00000
     32      -0.7956      1.00000
     33      -0.2002      1.00000
     34      -0.2001      1.00000
[...]
     17     -13.6543      1.00000
     18     -13.6543      1.00000
     19     -13.5574      1.00000
     20     -13.5574      1.00000
     21      -1.9398      1.00000
     22      -1.9398      1.00000
     23      -1.6238      1.00000
     24      -1.6238      1.00000
     25      -1.3910      1.00000
     26      -1.3910      1.00000
     27      -1.2335      1.00000
     28      -1.2335      1.00000
     29      -0.0927      1.00000
     30      -0.0926      1.00000
     31       0.0190      1.00000
     32       0.0190      1.00000
     33       0.7080      1.00000
     34       0.7080      1.00000
     35       0.7650      1.00000
     36       0.7650      1.00000
     37       1.1059      1.00000
     38       1.1059      1.00000
     39       1.5994      1.00000
     40       1.5994      1.00000
     41       2.0545      1.00000
     42       2.0545      1.00000
     43       2.4141      1.00000
     44       2.4141      1.00000
     45       5.0554      0.00000
     46       5.0554      0.00000
     47       5.1081      0.00000
     48       5.1081      0.00000
     49       5.2860      0.00000
     50       5.2860      0.00000
     51       5.5269      0.00000
     52       5.5269      0.00000
     53       5.8307      0.00000
     54       5.8307      0.00000
     55       6.1761      0.00000
     56       6.1761      0.00000
     57       7.0046      0.00000
     58       7.0046      0.00000
     59       7.0537      0.00000
     60       7.0537      0.00000
     61       7.4921      0.00000
     62       7.4922      0.00000
     63       7.8579      0.00000
     64       7.8579      0.00000
     65      14.5288      0.00000
     66      14.5289      0.00000
     67      15.3315      0.00000
     68      15.3315      0.00000
     69      17.0078      0.00000
     70      17.0078      0.00000
     71      17.8091      0.00000
     72      17.8092      0.00000

 k-point   142 :      -0.1000    0.4286    0.5000
  band No.  band energies     occupation 
      1     -43.5517      1.00000
      2     -43.5517      1.00000
      3     -43.5445      1.00000
      4     -43.5445      1.00000
      5     -43.5269      1.00000
      6     -43.5269      1.00000
      7     -43.4593      1.00000
      8     -43.4593      1.00000
      9     -43.3801      1.00000
     10     -43.3801      1.00000
     11     -43.3676      1.00000
     12     -43.3676      1.00000
     13     -15.0499      1.00000
     14     -15.0499      1.00000
     15     -14.1516      1.00000
     16     -14.1516      1.00000
     17     -13.6141      1.00000
     18     -13.6141      1.00000
     19     -13.5389      1.00000
     20     -13.5389      1.00000
     21      -2.1846      1.00000
     22      -2.1846      1.00000
     23      -1.7708      1.00000
     24      -1.7708      1.00000
     25      -1.1136      1.00000
     26      -1.1135      1.00000
     27      -1.0097      1.00000
     28      -1.0097      1.00000
     29      -0.3746      1.00000
     30      -0.3746      1.00000
     31       0.5288      1.00000
     32       0.5288      1.00000
     33       0.6831      1.00000
     34       0.6831      1.00000
     35       0.9369      1.00000
     36       0.9369      1.00000
     37       1.2856      1.00000
     38       1.2856      1.00000
     39       1.5882      1.00000
     40       1.5882      1.00000
     41       2.0965      1.00000
     42       2.0965      1.00000
     43       2.6446      1.00000
     44       2.6446      1.00000
     45       4.9189      0.00000
     46       4.9189      0.00000
     47       4.9597      0.00000
     48       4.9597      0.00000
     49       5.1092      0.00000
     50       5.1092      0.00000
     51       5.3394      0.00000
     52       5.3394      0.00000
     53       5.8613      0.00000
     54       5.8613      0.00000
     55       6.3086      0.00000
     56       6.3086      0.00000
     57       7.0650      0.00000
     58       7.0650      0.00000
     59       7.3945      0.00000
     60       7.3946      0.00000
     61       7.6803      0.00000
     62       7.6803      0.00000
     63       7.7969      0.00000
     64       7.7969      0.00000
     65      14.0627      0.00000
     66      14.0627      0.00000
     67      14.8761      0.00000
     68      14.8761      0.00000
     69      16.3856      0.00000
     70      16.3856      0.00000
     71      17.2639      0.00000
     72      17.2639      0.00000


--------------------------------------------------------------------------------------------------------


 soft charge-density along one line, spin component           1
         0         1         2         3         4         5         6         7         8         9
 total charge-density along one line
 
 soft charge-density along one line, spin component           2
         0         1         2         3         4         5         6         7         8         9
 total charge-density along one line
 
 pseudopotential strength for first ion, spin component:           1
-45.832  -0.008  -0.000   9.496   0.003   0.000  -0.000  -0.008
 -0.008 -45.852  -0.000   0.003   9.505   0.000  -0.000   0.007
 -0.000  -0.000 -45.895   0.000   0.000   9.523   0.004  -0.000
  9.496   0.003   0.000   4.662  -0.001  -0.000   0.000   0.002
  0.003   9.505   0.000  -0.001   4.660  -0.000   0.000  -0.003
  0.000   0.000   9.523  -0.000  -0.000   4.654  -0.003   0.000
 -0.000  -0.000   0.004   0.000   0.000  -0.003  -5.893  -0.000
 -0.008   0.007  -0.000   0.002  -0.003   0.000  -0.000  -5.784
  0.000  -0.024   0.000   0.000   0.009  -0.000   0.000  -0.117
 -0.000  -0.000  -0.016   0.000   0.000   0.006   0.215  -0.000
 -0.003  -0.004  -0.000   0.000   0.002   0.000   0.000   0.159
 -0.000  -0.000   0.004   0.000   0.000  -0.003  -6.335  -0.000
 -0.008   0.007  -0.000   0.002  -0.002   0.000  -0.000  -6.228
  0.000  -0.023   0.000   0.000   0.009  -0.000   0.000  -0.114
 -0.000  -0.000  -0.015   0.000   0.000   0.006   0.211  -0.000
 -0.003  -0.004  -0.000   0.000   0.002   0.000   0.000   0.156
 -0.002   0.007   0.000   0.001  -0.000  -0.000   0.000   0.001
 -0.004   0.015   0.000   0.001   0.000  -0.000   0.000   0.002
 pseudopotential strength for first ion, spin component:           2
-43.719  -0.005   0.000   8.518   0.002  -0.000  -0.000  -0.014
 -0.005 -43.784  -0.000   0.002   8.546   0.000  -0.000   0.004
  0.000  -0.000 -43.840  -0.000   0.000   8.569  -0.002  -0.000
  8.518   0.002  -0.000   4.977  -0.001   0.000   0.000   0.005
  0.002   8.546   0.000  -0.001   4.968   0.000  -0.000   0.000
 -0.000   0.000   8.569   0.000   0.000   4.959   0.001  -0.000
 -0.000  -0.000  -0.002   0.000  -0.000   0.001  -4.124   0.000
 -0.014   0.004  -0.000   0.005   0.000  -0.000   0.000  -4.212
 -0.001  -0.011   0.000   0.001  -0.000  -0.000   0.000   0.155
 -0.000  -0.000  -0.008  -0.000   0.000   0.001  -0.300   0.000
 -0.007   0.003  -0.000   0.003  -0.002   0.000  -0.000  -0.207
 -0.000  -0.000  -0.002   0.000  -0.000   0.001  -4.591   0.000
 -0.014   0.004  -0.000   0.005   0.000  -0.000   0.000  -4.677
 -0.001  -0.011   0.000   0.001  -0.001  -0.000   0.000   0.153
 -0.000  -0.000  -0.007  -0.000   0.000   0.001  -0.295   0.000
 -0.007   0.003  -0.000   0.003  -0.002   0.000  -0.000  -0.204
 -0.001   0.004   0.000   0.001  -0.000  -0.000  -0.000   0.001
 -0.002   0.008   0.000   0.002   0.000  -0.000  -0.000   0.002
 total augmentation occupancy for first ion, spin component:           1
  1.985  -0.000  -0.000  -0.058  -0.000  -0.000  -0.000   0.004   0.002  -0.000   0.004   0.000  -0.003  -0.002   0.000  -0.003
 -0.000   1.985  -0.000  -0.000  -0.056  -0.000  -0.000   0.004  -0.016  -0.000  -0.005   0.000  -0.004   0.016   0.000   0.005
 -0.000  -0.000   1.985  -0.000  -0.000  -0.056   0.007  -0.000   0.000  -0.005  -0.000  -0.006   0.000  -0.000   0.005   0.000
 -0.058  -0.000  -0.000   0.232  -0.002  -0.000  -0.000   0.063   0.040  -0.000   0.074   0.000  -0.060  -0.041   0.000  -0.072
 -0.000  -0.056  -0.000  -0.002   0.251  -0.000  -0.000   0.005  -0.174  -0.000  -0.085   0.000  -0.021   0.185   0.000   0.080
 -0.000  -0.000  -0.056  -0.000  -0.000   0.273   0.121  -0.000   0.000  -0.036  -0.000  -0.117   0.000  -0.000   0.039   0.000
 -0.000  -0.000   0.007  -0.000  -0.000   0.121   5.817  -0.000   0.000  -1.239  -0.000  -5.172   0.000  -0.000  -0.207   0.000
  0.004   0.004  -0.000   0.063   0.005  -0.000  -0.000   4.982   0.628  -0.000  -0.552   0.000  -4.905   0.121   0.000  -0.476
  0.002  -0.016   0.000   0.040  -0.174   0.000   0.000   0.628   7.233  -0.000   0.253  -0.000   0.136  -5.409   0.000   0.211
 -0.000  -0.000  -0.005  -0.000  -0.000  -0.036  -1.239  -0.000  -0.000   6.064  -0.000  -0.220   0.000   0.000  -5.530   0.000
  0.004  -0.005  -0.000   0.074  -0.085  -0.000  -0.000  -0.552   0.253  -0.000   7.084   0.000  -0.490   0.207   0.000  -5.575
  0.000   0.000  -0.006   0.000   0.000  -0.117  -5.172   0.000  -0.000  -0.220   0.000   5.557  -0.000   0.000   1.447  -0.000
 -0.003  -0.004   0.000  -0.060  -0.021   0.000   0.000  -4.905   0.136   0.000  -0.490  -0.000   5.751  -0.774  -0.000   1.368
 -0.002   0.016  -0.000  -0.041   0.185  -0.000  -0.000   0.121  -5.409   0.000   0.207   0.000  -0.774   4.806  -0.000  -0.593
  0.000   0.000   0.005   0.000   0.000   0.039  -0.207   0.000   0.000  -5.530   0.000   1.447  -0.000  -0.000   6.023  -0.000
 -0.003   0.005   0.000  -0.072   0.080   0.000   0.000  -0.476   0.211   0.000  -5.575  -0.000   1.368  -0.593  -0.000   5.224
  0.000  -0.014   0.000  -0.014   0.030   0.000   0.000   0.216  -0.006   0.000  -0.617  -0.000  -0.210   0.002  -0.000   0.606
 -0.000   0.008  -0.000   0.001  -0.003  -0.000  -0.000  -0.036  -0.007  -0.000   0.106   0.000   0.041   0.006   0.000  -0.098
 total augmentation occupancy for first ion, spin component:           2
 -0.002   0.000   0.000  -0.007   0.000   0.000   0.000  -0.002   0.000   0.000  -0.002  -0.000   0.002  -0.000  -0.000   0.002
  0.000  -0.002   0.000   0.000  -0.007   0.000   0.000  -0.002   0.001   0.000   0.001  -0.000   0.001  -0.002  -0.000  -0.001
  0.000   0.000  -0.002   0.000   0.000  -0.007  -0.001   0.000   0.000   0.001  -0.000   0.001  -0.000  -0.000  -0.001   0.000
 -0.007   0.000   0.000   0.014  -0.001  -0.000  -0.000   0.014   0.029   0.000   0.003   0.000  -0.009  -0.018  -0.000  -0.002
  0.000  -0.007   0.000  -0.001   0.019   0.000   0.000  -0.016  -0.034  -0.000  -0.049  -0.000   0.012   0.018  -0.000   0.032
  0.000   0.000  -0.007  -0.000   0.000   0.024   0.046  -0.000  -0.000  -0.019   0.000  -0.030   0.000   0.000   0.013  -0.000
  0.000   0.000  -0.001  -0.000   0.000   0.046   2.868   0.000   0.000  -3.212  -0.000  -1.412  -0.000  -0.000   2.156   0.000
 -0.002  -0.002   0.000   0.014  -0.016  -0.000   0.000   1.399   1.680   0.000  -2.130  -0.000  -0.401  -1.132  -0.000   1.416
  0.000   0.001   0.000   0.029  -0.034  -0.000   0.000   1.680   5.661  -0.000   1.141  -0.000  -1.114  -3.320   0.000  -0.821
  0.000   0.000   0.001   0.000  -0.000  -0.019  -3.212   0.000  -0.000   2.710  -0.000   2.143  -0.000   0.000  -1.308   0.000
 -0.002   0.001  -0.000   0.003  -0.049   0.000  -0.000  -2.130   1.141  -0.000   4.859   0.000   1.395  -0.823   0.000  -2.731
 -0.000  -0.000   0.001   0.000  -0.000  -0.030  -1.412  -0.000  -0.000   2.143   0.000   0.555   0.000   0.000  -1.501  -0.000
  0.002   0.001  -0.000  -0.009   0.012   0.000  -0.000  -0.401  -1.114  -0.000   1.395   0.000  -0.158   0.788   0.000  -0.980
 -0.000  -0.002  -0.000  -0.018   0.018   0.000  -0.000  -1.132  -3.320   0.000  -0.823   0.000   0.788   1.899  -0.000   0.609
 -0.000  -0.000  -0.001  -0.000  -0.000   0.013   2.156  -0.000   0.000  -1.308   0.000  -1.501   0.000  -0.000   0.471  -0.000
  0.002  -0.001   0.000  -0.002   0.032  -0.000   0.000   1.416  -0.821   0.000  -2.731  -0.000  -0.980   0.609  -0.000   1.459
  0.000  -0.000  -0.000  -0.000   0.008  -0.000  -0.000   0.058  -0.033  -0.000  -0.099   0.000  -0.029   0.029   0.000   0.040
 -0.000   0.000   0.000  -0.001   0.002   0.000   0.000  -0.003  -0.003   0.000   0.013  -0.000   0.001   0.001  -0.000  -0.001


------------------------ aborting loop because EDIFF is reached ----------------------------------------


    CHARGE:  cpu time    1.0461: real time    1.0475
    FORLOC:  cpu time    0.0038: real time    0.0039
    FORNL :  cpu time    6.5938: real time    6.6026
    STRESS:  cpu time    6.3838: real time    6.3935
    FORCOR:  cpu time    0.0527: real time    0.0528
    FORHAR:  cpu time    0.0107: real time    0.0108
    MIXING:  cpu time    0.0013: real time    0.0013
    OFIELD:  cpu time    0.0000: real time    0.0000

  FORCE on cell =-STRESS in cart. coord.  units (eV):
  Direction    XX          YY          ZZ          XY          YZ          ZX
  --------------------------------------------------------------------------------------
  Alpha Z   448.99779   448.99779   448.99779
  Ewald   -1179.15620 -4055.80368 -2234.49852    -0.01069    -0.00360    -0.00052
  Hartree  2092.40490   120.77897  1401.68732    -0.00574    -0.00305    -0.00027
  E(xc)    -548.37388  -549.85937  -549.08064    -0.00002    -0.00000    -0.00000
  Local   -2525.14435  2276.81157  -803.22414     0.01620     0.00680     0.00077
  n-local  -313.52822  -320.94325  -318.79884    -0.00010    -0.00004    -0.00000
  augment   450.77154   459.51396   455.69408     0.00003    -0.00002     0.00001
  Kinetic  1574.11035  1620.63937  1599.17949     0.00036    -0.00027     0.00003
  Fock        0.00000     0.00000     0.00000     0.00000     0.00000     0.00000
  -------------------------------------------------------------------------------------
  Total       0.08194     0.13537    -0.04348     0.00004    -0.00018     0.00001
  in kB       1.05952     1.75048    -0.56218     0.00055    -0.00229     0.00010
  external pressure =        0.75 kB  Pullay stress =        0.00 kB


 VOLUME and BASIS-vectors are now :
 -----------------------------------------------------------------------------
  energy-cutoff  :      520.00
  volume of cell :      123.90
      direct lattice vectors                 reciprocal lattice vectors
     2.875311631 -0.000003344 -0.000000481     0.347788389  0.000000501 -0.000000005
    -0.000006696  4.651681998  0.000012394     0.000000250  0.214976002 -0.000000447
     0.000000125  0.000019281  9.263551871     0.000000018 -0.000000288  0.107949954

  length of vectors
     2.875311631  4.651681998  9.263551871     0.347788389  0.214976002  0.107949954


 FORCES acting on ions
    electron-ion (+dipol)            ewald-force                    non-local-force                 convergence-correction
 -----------------------------------------------------------------------------------------------
   0.398E-02 -.361E+02 0.140E+03   -.394E-02 0.360E+02 -.141E+03   -.132E-03 0.106E+00 0.114E+01   0.457E-07 -.203E-03 -.398E-02
   0.152E-02 0.361E+02 -.140E+03   -.145E-02 -.360E+02 0.141E+03   -.303E-04 -.106E+00 -.114E+01   0.343E-06 0.325E-03 0.462E-02
   -.125E-02 -.361E+02 -.140E+03   0.119E-02 0.360E+02 0.141E+03   0.181E-04 0.106E+00 -.114E+01   -.655E-06 -.127E-03 0.394E-02
   -.415E-02 0.361E+02 0.140E+03   0.411E-02 -.360E+02 -.141E+03   0.141E-03 -.106E+00 0.114E+01   0.490E-06 0.133E-03 -.426E-02
   -.869E-03 -.363E+03 0.458E+02   0.946E-03 0.388E+03 -.490E+02   -.479E-04 -.253E+02 0.316E+01   0.913E-07 -.119E-03 0.415E-03
   -.723E-03 -.363E+03 -.458E+02   0.790E-03 0.388E+03 0.490E+02   -.738E-04 -.253E+02 -.316E+01   0.844E-07 0.804E-04 0.186E-03
   0.592E-03 0.363E+03 0.458E+02   -.642E-03 -.388E+03 -.490E+02   0.308E-04 0.253E+02 0.316E+01   -.828E-07 0.703E-04 0.113E-02
   0.769E-03 0.363E+03 -.458E+02   -.845E-03 -.388E+03 0.490E+02   0.843E-04 0.253E+02 -.316E+01   -.101E-06 0.789E-04 -.549E-03
   -.938E-03 -.619E+02 -.702E+02   0.992E-03 0.650E+02 0.742E+02   -.214E-04 -.319E+01 -.403E+01   0.589E-07 -.192E-03 0.137E-03
   0.802E-03 0.619E+02 -.702E+02   -.830E-03 -.650E+02 0.742E+02   -.112E-04 0.319E+01 -.403E+01   -.395E-07 0.282E-03 -.652E-04
   0.261E-02 -.619E+02 0.702E+02   -.281E-02 0.650E+02 -.742E+02   0.208E-04 -.319E+01 0.403E+01   -.376E-06 0.212E-03 -.427E-03
   -.232E-02 0.619E+02 0.702E+02   0.249E-02 -.650E+02 -.742E+02   0.906E-05 0.319E+01 0.403E+01   0.349E-06 -.395E-03 -.640E-03
 -----------------------------------------------------------------------------------------------
   0.132E-04 -.987E-03 -.195E-02   -.312E-13 -.142E-13 0.568E-13   -.133E-04 0.857E-03 0.135E-02   0.207E-06 0.146E-03 0.516E-03
 
 
 POSITION                                       TOTAL-FORCE (eV/Angst)
 -----------------------------------------------------------------------------------
      0.71883      0.16335      8.01670        -0.000088      0.016687      0.012255
      2.15648      4.48836      1.24688         0.000036     -0.017152     -0.012381
      2.15648      2.48918      5.87865        -0.000043      0.017037     -0.012421
      0.71883      2.16251      3.38492         0.000093     -0.016775      0.012368
      0.71883      3.31516      4.91510         0.000029      0.002221     -0.003809
      2.15648      0.98932      8.98024        -0.000006      0.002336      0.003687
      0.71882      3.66238      0.28333        -0.000019     -0.002155     -0.003795
      2.15648      1.33654      4.34848         0.000008     -0.002301      0.003624
      0.71883      0.73327      2.09699         0.000032     -0.005825      0.001995
      0.71883      1.59259      6.72876        -0.000039      0.005842      0.002001
      2.15650      3.05909      2.53478        -0.000181     -0.005908     -0.001771
      2.15646      3.91843      7.16657         0.000178      0.005993     -0.001753
 -----------------------------------------------------------------------------------
    total drift:                                0.000000      0.000016     -0.000087


--------------------------------------------------------------------------------------------------------



  FREE ENERGIE OF THE ION-ELECTRON SYSTEM (eV)
  ---------------------------------------------------
  free  energy   TOTEN  =       -95.61083611 eV

  energy  without entropy=      -95.61083611  energy(sigma->0) =      -95.61083611
 


--------------------------------------------------------------------------------------------------------


    POTLOK:  cpu time    0.4856: real time    0.4861


--------------------------------------------------------------------------------------------------------


 stress matrix after NEB project (eV)
      0.08194      0.00004      0.00001
      0.00004      0.13537     -0.00018
      0.00001     -0.00018     -0.04348
  FORCES: max atom, RMS     0.021154    0.012859
  FORCE total and by dimension    0.044544    0.017152
  Stress total and by dimension    0.164098    0.135369
 writing wavefunctions
     LOOP+:  cpu time   93.9525: real time  106.1672
    4ORBIT:  cpu time    0.0000: real time    0.0000

 total amount of memory used by VASP MPI-rank0   142888. kBytes
=======================================================================

   base      :      30000. kBytes
   nonl-proj :      35006. kBytes
   fftplans  :       1492. kBytes
   grid      :       3666. kBytes
   one-center:         93. kBytes
   wavefun   :      72631. kBytes
 
  
  
 General timing and accounting informations for this job:
 ========================================================
  
                  Total CPU time used (sec):      105.989
                            User time (sec):       98.575
                          System time (sec):        7.413
                         Elapsed time (sec):      119.658
  
                   Maximum memory used (kb):      172564.
                   Average memory used (kb):           0.
  
                          Minor page faults:        96361
                          Major page faults:            0
                 Voluntary context switches:          379
