<?xml version="1.0" encoding="ISO-8859-1"?>
<modeling>
 <generator>
  <i name="program" type="string">vasp </i>
  <i name="version" type="string">5.4.4.18Apr17-6-g9f103f2a35  </i>
  <i name="subversion" type="string">(build Nov 08 2022 17:27:33) complex            parallel </i>
  <i name="platform" type="string">LinuxIFC </i>
  <i name="date" type="string">2022 11 22 </i>
  <i name="time" type="string">19:28:26 </i>
 </generator>
 <incar>
  <i type="string" name="PREC">accurate</i>
  <i type="string" name="ALGO"> Fast</i>
  <i type="int" name="ISPIN">     2</i>
  <i type="int" name="ICHARG">     0</i>
  <i type="int" name="NELM">   100</i>
  <i type="int" name="IBRION">     2</i>
  <i name="EDIFF">      0.00000100</i>
  <i name="EDIFFG">     -0.03000000</i>
  <i type="int" name="NSW">     0</i>
  <i type="int" name="ISIF">     3</i>
  <i type="int" name="ISYM">     0</i>
  <i name="ENCUT">    520.00000000</i>
  <i name="ENAUG">   1040.00000000</i>
  <v name="MAGMOM">      5.00000000      5.00000000      5.00000000      5.00000000      0.60000000      0.60000000      0.60000000      0.60000000      0.60000000      0.60000000      0.60000000      0.60000000</v>
  <i type="logical" name="LREAL"> F  </i>
  <i type="int" name="ISMEAR">     0</i>
  <i name="SIGMA">      0.01000000</i>
  <i name="KSPACING">      0.22000000</i>
  <i type="int" name="LMAXMIX">     4</i>
  <i type="logical" name="LWAVE"> T  </i>
  <i type="logical" name="LCHARG"> T  </i>
  <i type="logical" name="LVHAR"> T  </i>
  <i type="int" name="LORBIT">     0</i>
  <i type="logical" name="LASPH"> T  </i>
  <i type="logical" name="LAECHG"> T  </i>
  <v type="int" name="KPOINT_BSE">    -1     0     0     0</v>
  <i type="int" name="NELM">   100</i>
  <i type="string" name="GGA"> Pe</i>
  <i type="logical" name="LASPH"> T  </i>
 </incar>
 <structure name="primitive_cell" >
  <crystal>
   <varray name="basis" >
    <v>       2.87531163      -0.00000334      -0.00000048 </v>
    <v>      -0.00000670       4.65168200       0.00001239 </v>
    <v>       0.00000013       0.00001928       9.26355187 </v>
   </varray>
   <i name="volume">    123.90033379 </i>
   <varray name="rec_basis" >
    <v>       0.34778839       0.00000050      -0.00000000 </v>
    <v>       0.00000025       0.21497600      -0.00000045 </v>
    <v>       0.00000002      -0.00000029       0.10794995 </v>
   </varray>
  </crystal>
  <varray name="positions" >
   <v>       0.24999934       0.03511357      -0.13459814 </v>
   <v>      -0.25000556      -0.15763391      -0.22637001 </v>
   <v>       0.24999903      -0.21267643       0.03058459 </v>
   <v>      -0.25000025       0.21267748      -0.03058374 </v>
   <v>       0.25000066       0.34236557      -0.27363082 </v>
   <v>      -0.25000065      -0.03510941       0.13459893 </v>
   <v>       0.24999964       0.15763380       0.22636992 </v>
   <v>       0.25000071      -0.28732295      -0.46941645 </v>
   <v>      -0.24999909      -0.46488790      -0.36540110 </v>
   <v>      -0.24999981       0.28732365       0.46941768 </v>
   <v>      -0.24999448      -0.34236900       0.27362860 </v>
   <v>       0.25000045       0.46488653       0.36540153 </v>
  </varray>
 </structure>
 <varray name="primitive_index" >
  <v type="int" >        1 </v>
  <v type="int" >       12 </v>
  <v type="int" >        7 </v>
  <v type="int" >        6 </v>
  <v type="int" >       10 </v>
  <v type="int" >        2 </v>
  <v type="int" >        9 </v>
  <v type="int" >        5 </v>
  <v type="int" >        3 </v>
  <v type="int" >        8 </v>
  <v type="int" >       11 </v>
  <v type="int" >        4 </v>
 </varray>
 <kpoints>
  <generation param="Gamma">
   <v type="int" name="divisions">      10        7        4 </v>
   <v name="usershift">      0.00000000       0.00000000       0.00000000 </v>
   <v name="genvec1">      0.10000000       0.00000000      -0.00000000 </v>
   <v name="genvec2">      0.00000000       0.14285714      -0.00000000 </v>
   <v name="genvec3">     -0.00000000       0.00000000       0.25000000 </v>
   <v name="shift">      0.00000000       0.00000000       0.00000000 </v>
  </generation>
  <varray name="kpointlist" >
   <v>       0.00000000       0.00000000       0.00000000 </v>
   <v>       0.10000000       0.00000000       0.00000000 </v>
   <v>       0.20000000       0.00000000       0.00000000 </v>
   <v>       0.30000000       0.00000000       0.00000000 </v>
   <v>       0.40000000       0.00000000       0.00000000 </v>
   <v>       0.50000000       0.00000000       0.00000000 </v>
   <v>      -0.00000000       0.14285714       0.00000000 </v>
   <v>       0.10000000       0.14285714      -0.00000000 </v>
   <v>       0.20000000       0.14285714       0.00000000 </v>
   <v>       0.30000000       0.14285714      -0.00000000 </v>
   <v>       0.40000000       0.14285714       0.00000000 </v>
   <v>       0.50000000       0.14285714       0.00000000 </v>
   <v>      -0.40000000       0.14285714      -0.00000000 </v>
   <v>      -0.30000000       0.14285714       0.00000000 </v>
   <v>      -0.20000000       0.14285714      -0.00000000 </v>
   <v>      -0.10000000       0.14285714       0.00000000 </v>
   <v>      -0.00000000       0.28571429       0.00000000 </v>
   <v>       0.10000000       0.28571429       0.00000000 </v>
   <v>       0.20000000       0.28571429       0.00000000 </v>
   <v>       0.30000000       0.28571429      -0.00000000 </v>
   <v>       0.40000000       0.28571429       0.00000000 </v>
   <v>       0.50000000       0.28571429       0.00000000 </v>
   <v>      -0.40000000       0.28571429      -0.00000000 </v>
   <v>      -0.30000000       0.28571429       0.00000000 </v>
   <v>      -0.20000000       0.28571429       0.00000000 </v>
   <v>      -0.10000000       0.28571429      -0.00000000 </v>
   <v>       0.00000000       0.42857143       0.00000000 </v>
   <v>       0.10000000       0.42857143       0.00000000 </v>
   <v>       0.20000000       0.42857143      -0.00000000 </v>
   <v>       0.30000000       0.42857143      -0.00000000 </v>
   <v>       0.40000000       0.42857143       0.00000000 </v>
   <v>       0.50000000       0.42857143       0.00000000 </v>
   <v>      -0.40000000       0.42857143      -0.00000000 </v>
   <v>      -0.30000000       0.42857143       0.00000000 </v>
   <v>      -0.20000000       0.42857143      -0.00000000 </v>
   <v>      -0.10000000       0.42857143       0.00000000 </v>
   <v>      -0.00000000       0.00000000       0.25000000 </v>
   <v>       0.10000000       0.00000000       0.25000000 </v>
   <v>       0.20000000       0.00000000       0.25000000 </v>
   <v>       0.30000000       0.00000000       0.25000000 </v>
   <v>       0.40000000       0.00000000       0.25000000 </v>
   <v>       0.50000000       0.00000000       0.25000000 </v>
   <v>      -0.40000000      -0.00000000       0.25000000 </v>
   <v>      -0.30000000       0.00000000       0.25000000 </v>
   <v>      -0.20000000       0.00000000       0.25000000 </v>
   <v>      -0.10000000      -0.00000000       0.25000000 </v>
   <v>       0.00000000       0.14285714       0.25000000 </v>
   <v>       0.10000000       0.14285714       0.25000000 </v>
   <v>       0.20000000       0.14285714       0.25000000 </v>
   <v>       0.30000000       0.14285714       0.25000000 </v>
   <v>       0.40000000       0.14285714       0.25000000 </v>
   <v>       0.50000000       0.14285714       0.25000000 </v>
   <v>      -0.40000000       0.14285714       0.25000000 </v>
   <v>      -0.30000000       0.14285714       0.25000000 </v>
   <v>      -0.20000000       0.14285714       0.25000000 </v>
   <v>      -0.10000000       0.14285714       0.25000000 </v>
   <v>       0.00000000       0.28571429       0.25000000 </v>
   <v>       0.10000000       0.28571429       0.25000000 </v>
   <v>       0.20000000       0.28571429       0.25000000 </v>
   <v>       0.30000000       0.28571429       0.25000000 </v>
   <v>       0.40000000       0.28571429       0.25000000 </v>
   <v>       0.50000000       0.28571429       0.25000000 </v>
   <v>      -0.40000000       0.28571429       0.25000000 </v>
   <v>      -0.30000000       0.28571429       0.25000000 </v>
   <v>      -0.20000000       0.28571429       0.25000000 </v>
   <v>      -0.10000000       0.28571429       0.25000000 </v>
   <v>      -0.00000000       0.42857143       0.25000000 </v>
   <v>       0.10000000       0.42857143       0.25000000 </v>
   <v>       0.20000000       0.42857143       0.25000000 </v>
   <v>       0.30000000       0.42857143       0.25000000 </v>
   <v>       0.40000000       0.42857143       0.25000000 </v>
   <v>       0.50000000       0.42857143       0.25000000 </v>
   <v>      -0.40000000       0.42857143       0.25000000 </v>
   <v>      -0.30000000       0.42857143       0.25000000 </v>
   <v>      -0.20000000       0.42857143       0.25000000 </v>
   <v>      -0.10000000       0.42857143       0.25000000 </v>
   <v>      -0.00000000      -0.42857143       0.25000000 </v>
   <v>       0.10000000      -0.42857143       0.25000000 </v>
   <v>       0.20000000      -0.42857143       0.25000000 </v>
   <v>       0.30000000      -0.42857143       0.25000000 </v>
   <v>       0.40000000      -0.42857143       0.25000000 </v>
   <v>       0.50000000      -0.42857143       0.25000000 </v>
   <v>      -0.40000000      -0.42857143       0.25000000 </v>
   <v>      -0.30000000      -0.42857143       0.25000000 </v>
   <v>      -0.20000000      -0.42857143       0.25000000 </v>
   <v>      -0.10000000      -0.42857143       0.25000000 </v>
   <v>       0.00000000      -0.28571429       0.25000000 </v>
   <v>       0.10000000      -0.28571429       0.25000000 </v>
   <v>       0.20000000      -0.28571429       0.25000000 </v>
   <v>       0.30000000      -0.28571429       0.25000000 </v>
   <v>       0.40000000      -0.28571429       0.25000000 </v>
   <v>       0.50000000      -0.28571429       0.25000000 </v>
   <v>      -0.40000000      -0.28571429       0.25000000 </v>
   <v>      -0.30000000      -0.28571429       0.25000000 </v>
   <v>      -0.20000000      -0.28571429       0.25000000 </v>
   <v>      -0.10000000      -0.28571429       0.25000000 </v>
   <v>       0.00000000      -0.14285714       0.25000000 </v>
   <v>       0.10000000      -0.14285714       0.25000000 </v>
   <v>       0.20000000      -0.14285714       0.25000000 </v>
   <v>       0.30000000      -0.14285714       0.25000000 </v>
   <v>       0.40000000      -0.14285714       0.25000000 </v>
   <v>       0.50000000      -0.14285714       0.25000000 </v>
   <v>      -0.40000000      -0.14285714       0.25000000 </v>
   <v>      -0.30000000      -0.14285714       0.25000000 </v>
   <v>      -0.20000000      -0.14285714       0.25000000 </v>
   <v>      -0.10000000      -0.14285714       0.25000000 </v>
   <v>      -0.00000000       0.00000000       0.50000000 </v>
   <v>       0.10000000      -0.00000000       0.50000000 </v>
   <v>       0.20000000       0.00000000       0.50000000 </v>
   <v>       0.30000000       0.00000000       0.50000000 </v>
   <v>       0.40000000       0.00000000       0.50000000 </v>
   <v>       0.50000000       0.00000000       0.50000000 </v>
   <v>      -0.00000000       0.14285714       0.50000000 </v>
   <v>       0.10000000       0.14285714       0.50000000 </v>
   <v>       0.20000000       0.14285714       0.50000000 </v>
   <v>       0.30000000       0.14285714       0.50000000 </v>
   <v>       0.40000000       0.14285714       0.50000000 </v>
   <v>       0.50000000       0.14285714       0.50000000 </v>
   <v>      -0.40000000       0.14285714       0.50000000 </v>
   <v>      -0.30000000       0.14285714       0.50000000 </v>
   <v>      -0.20000000       0.14285714       0.50000000 </v>
   <v>      -0.10000000       0.14285714       0.50000000 </v>
   <v>       0.00000000       0.28571429       0.50000000 </v>
   <v>       0.10000000       0.28571429       0.50000000 </v>
   <v>       0.20000000       0.28571429       0.50000000 </v>
   <v>       0.30000000       0.28571429       0.50000000 </v>
   <v>       0.40000000       0.28571429       0.50000000 </v>
   <v>       0.50000000       0.28571429       0.50000000 </v>
   <v>      -0.40000000       0.28571429       0.50000000 </v>
   <v>      -0.30000000       0.28571429       0.50000000 </v>
   <v>      -0.20000000       0.28571429       0.50000000 </v>
   <v>      -0.10000000       0.28571429       0.50000000 </v>
   <v>       0.00000000       0.42857143       0.50000000 </v>
   <v>       0.10000000       0.42857143       0.50000000 </v>
   <v>       0.20000000       0.42857143       0.50000000 </v>
   <v>       0.30000000       0.42857143       0.50000000 </v>
   <v>       0.40000000       0.42857143       0.50000000 </v>
   <v>       0.50000000       0.42857143       0.50000000 </v>
   <v>      -0.40000000       0.42857143       0.50000000 </v>
   <v>      -0.30000000       0.42857143       0.50000000 </v>
   <v>      -0.20000000       0.42857143       0.50000000 </v>
   <v>      -0.10000000       0.42857143       0.50000000 </v>
  </varray>
  <varray name="weights" >
   <v>       0.00357143 </v>
   <v>       0.00714286 </v>
   <v>       0.00714286 </v>
   <v>       0.00714286 </v>
   <v>       0.00714286 </v>
   <v>       0.00357143 </v>
   <v>       0.00714286 </v>
   <v>       0.00714286 </v>
   <v>       0.00714286 </v>
   <v>       0.00714286 </v>
   <v>       0.00714286 </v>
   <v>       0.00714286 </v>
   <v>       0.00714286 </v>
   <v>       0.00714286 </v>
   <v>       0.00714286 </v>
   <v>       0.00714286 </v>
   <v>       0.00714286 </v>
   <v>       0.00714286 </v>
   <v>       0.00714286 </v>
   <v>       0.00714286 </v>
   <v>       0.00714286 </v>
   <v>       0.00714286 </v>
   <v>       0.00714286 </v>
   <v>       0.00714286 </v>
   <v>       0.00714286 </v>
   <v>       0.00714286 </v>
   <v>       0.00714286 </v>
   <v>       0.00714286 </v>
   <v>       0.00714286 </v>
   <v>       0.00714286 </v>
   <v>       0.00714286 </v>
   <v>       0.00714286 </v>
   <v>       0.00714286 </v>
   <v>       0.00714286 </v>
   <v>       0.00714286 </v>
   <v>       0.00714286 </v>
   <v>       0.00714286 </v>
   <v>       0.00714286 </v>
   <v>       0.00714286 </v>
   <v>       0.00714286 </v>
   <v>       0.00714286 </v>
   <v>       0.00714286 </v>
   <v>       0.00714286 </v>
   <v>       0.00714286 </v>
   <v>       0.00714286 </v>
   <v>       0.00714286 </v>
   <v>       0.00714286 </v>
   <v>       0.00714286 </v>
   <v>       0.00714286 </v>
   <v>       0.00714286 </v>
   <v>       0.00714286 </v>
   <v>       0.00714286 </v>
   <v>       0.00714286 </v>
   <v>       0.00714286 </v>
   <v>       0.00714286 </v>
   <v>       0.00714286 </v>
   <v>       0.00714286 </v>
   <v>       0.00714286 </v>
   <v>       0.00714286 </v>
   <v>       0.00714286 </v>
   <v>       0.00714286 </v>
   <v>       0.00714286 </v>
   <v>       0.00714286 </v>
   <v>       0.00714286 </v>
   <v>       0.00714286 </v>
   <v>       0.00714286 </v>
   <v>       0.00714286 </v>
   <v>       0.00714286 </v>
   <v>       0.00714286 </v>
   <v>       0.00714286 </v>
   <v>       0.00714286 </v>
   <v>       0.00714286 </v>
   <v>       0.00714286 </v>
   <v>       0.00714286 </v>
   <v>       0.00714286 </v>
   <v>       0.00714286 </v>
   <v>       0.00714286 </v>
   <v>       0.00714286 </v>
   <v>       0.00714286 </v>
   <v>       0.00714286 </v>
   <v>       0.00714286 </v>
   <v>       0.00714286 </v>
   <v>       0.00714286 </v>
   <v>       0.00714286 </v>
   <v>       0.00714286 </v>
   <v>       0.00714286 </v>
   <v>       0.00714286 </v>
   <v>       0.00714286 </v>
   <v>       0.00714286 </v>
   <v>       0.00714286 </v>
   <v>       0.00714286 </v>
   <v>       0.00714286 </v>
   <v>       0.00714286 </v>
   <v>       0.00714286 </v>
   <v>       0.00714286 </v>
   <v>       0.00714286 </v>
   <v>       0.00714286 </v>
   <v>       0.00714286 </v>
   <v>       0.00714286 </v>
   <v>       0.00714286 </v>
   <v>       0.00714286 </v>
   <v>       0.00714286 </v>
   <v>       0.00714286 </v>
   <v>       0.00714286 </v>
   <v>       0.00714286 </v>
   <v>       0.00714286 </v>
   <v>       0.00357143 </v>
   <v>       0.00714286 </v>
   <v>       0.00714286 </v>
   <v>       0.00714286 </v>
   <v>       0.00714286 </v>
   <v>       0.00357143 </v>
   <v>       0.00714286 </v>
   <v>       0.00714286 </v>
   <v>       0.00714286 </v>
   <v>       0.00714286 </v>
   <v>       0.00714286 </v>
   <v>       0.00714286 </v>
   <v>       0.00714286 </v>
   <v>       0.00714286 </v>
   <v>       0.00714286 </v>
   <v>       0.00714286 </v>
   <v>       0.00714286 </v>
   <v>       0.00714286 </v>
   <v>       0.00714286 </v>
   <v>       0.00714286 </v>
   <v>       0.00714286 </v>
   <v>       0.00714286 </v>
   <v>       0.00714286 </v>
   <v>       0.00714286 </v>
   <v>       0.00714286 </v>
   <v>       0.00714286 </v>
   <v>       0.00714286 </v>
   <v>       0.00714286 </v>
   <v>       0.00714286 </v>
   <v>       0.00714286 </v>
   <v>       0.00714286 </v>
   <v>       0.00714286 </v>
   <v>       0.00714286 </v>
   <v>       0.00714286 </v>
   <v>       0.00714286 </v>
   <v>       0.00714286 </v>
  </varray>
 </kpoints>
 <parameters>
  <separator name="general" >
   <i type="string" name="SYSTEM">unknown system</i>
   <i type="logical" name="LCOMPAT"> F  </i>
  </separator>
  <separator name="electronic" >
   <i type="string" name="PREC">accura</i>
   <i name="ENMAX">    520.00000000</i>
   <i name="ENAUG">   1040.00000000</i>
   <i name="EDIFF">      0.00000100</i>
   <i type="int" name="IALGO">    68</i>
   <i type="int" name="IWAVPR">    10</i>
   <i type="int" name="NBANDS">    72</i>
   <i name="NELECT">    100.00000000</i>
   <i type="int" name="TURBO">     0</i>
   <i type="int" name="IRESTART">     0</i>
   <i type="int" name="NREBOOT">     0</i>
   <i type="int" name="NMIN">     0</i>
   <i name="EREF">      0.00000000</i>
   <separator name="electronic smearing" >
    <i type="int" name="ISMEAR">     0</i>
    <i name="SIGMA">      0.01000000</i>
    <i name="KSPACING">      0.22000000</i>
    <i type="logical" name="KGAMMA"> T  </i>
   </separator>
   <separator name="electronic projectors" >
    <i type="logical" name="LREAL"> F  </i>
    <v name="ROPT">      0.00000000      0.00000000</v>
    <i type="int" name="LMAXPAW">  -100</i>
    <i type="int" name="LMAXMIX">     4</i>
    <i type="logical" name="NLSPLINE"> F  </i>
   </separator>
   <separator name="electronic startup" >
    <i type="int" name="ISTART">     1</i>
    <i type="int" name="ICHARG">     0</i>
    <i type="int" name="INIWAV">     1</i>
   </separator>
   <separator name="electronic spin" >
    <i type="int" name="ISPIN">     2</i>
    <i type="logical" name="LNONCOLLINEAR"> F  </i>
    <v name="MAGMOM">      5.00000000      5.00000000      5.00000000      5.00000000      0.60000000      0.60000000      0.60000000      0.60000000      0.60000000      0.60000000      0.60000000      0.60000000</v>
    <i name="NUPDOWN">     -1.00000000</i>
    <i type="logical" name="LSORBIT"> F  </i>
    <v name="SAXIS">      0.00000000      0.00000000      1.00000000</v>
    <i type="logical" name="LSPIRAL"> F  </i>
    <v name="QSPIRAL">      0.00000000      0.00000000      0.00000000</v>
    <i type="logical" name="LZEROZ"> F  </i>
   </separator>
   <separator name="electronic exchange-correlation" >
    <i type="logical" name="LASPH"> T  </i>
    <i type="logical" name="LMETAGGA"> F  </i>
   </separator>
   <separator name="electronic convergence" >
    <i type="int" name="NELM">   100</i>
    <i type="int" name="NELMDL">     0</i>
    <i type="int" name="NELMIN">     2</i>
    <i name="ENINI">    520.00000000</i>
    <separator name="electronic convergence detail" >
     <i type="logical" name="LDIAG"> T  </i>
     <i type="logical" name="LSUBROT"> F  </i>
     <i name="WEIMIN">      0.00000000</i>
     <i name="EBREAK">      0.00000000</i>
     <i name="DEPER">      0.30000000</i>
     <i type="int" name="NRMM">     4</i>
     <i name="TIME">      0.40000000</i>
    </separator>
   </separator>
   <separator name="electronic mixer" >
    <i name="AMIX">      0.40000000</i>
    <i name="BMIX">      1.00000000</i>
    <i name="AMIN">      0.10000000</i>
    <i name="AMIX_MAG">      1.60000000</i>
    <i name="BMIX_MAG">      1.00000000</i>
    <separator name="electronic mixer details" >
     <i type="int" name="IMIX">     4</i>
     <i type="logical" name="MIXFIRST"> F  </i>
     <i type="int" name="MAXMIX">   -45</i>
     <i name="WC">    100.00000000</i>
     <i type="int" name="INIMIX">     1</i>
     <i type="int" name="MIXPRE">     1</i>
     <i type="int" name="MREMOVE">     5</i>
    </separator>
   </separator>
   <separator name="electronic dipolcorrection" >
    <i type="logical" name="LDIPOL"> F  </i>
    <i type="logical" name="LMONO"> F  </i>
    <i type="int" name="IDIPOL">     0</i>
    <i name="EPSILON">      1.00000000</i>
    <v name="DIPOL">   -100.00000000   -100.00000000   -100.00000000</v>
    <i name="EFIELD">      0.00000000</i>
   </separator>
  </separator>
  <separator name="grids" >
   <i type="int" name="NGX">    24</i>
   <i type="int" name="NGY">    36</i>
   <i type="int" name="NGZ">    70</i>
   <i type="int" name="NGXF">    48</i>
   <i type="int" name="NGYF">    72</i>
   <i type="int" name="NGZF">   140</i>
   <i type="logical" name="ADDGRID"> F  </i>
  </separator>
  <separator name="ionic" >
   <i type="int" name="NSW">     0</i>
   <i type="int" name="IBRION">    -1</i>
   <i type="int" name="MDALGO">     0</i>
   <i type="int" name="ISIF">     3</i>
   <i name="PSTRESS">      0.00000000</i>
   <i name="EDIFFG">     -0.03000000</i>
   <i type="int" name="NFREE">     1</i>
   <i name="POTIM">      0.50000000</i>
   <i name="SMASS">     -3.00000000</i>
   <i name="SCALEE">      1.00000000</i>
  </separator>
  <separator name="ionic md" >
   <i name="TEBEG">      0.00010000</i>
   <i name="TEEND">      0.00010000</i>
   <i type="int" name="NBLOCK">     1</i>
   <i type="int" name="KBLOCK">     1</i>
   <i type="int" name="NPACO">   256</i>
   <i name="APACO">     16.00000000</i>
  </separator>
  <separator name="symmetry" >
   <i type="int" name="ISYM">     0</i>
   <i name="SYMPREC">      0.00001000</i>
  </separator>
  <separator name="dos" >
   <i type="int" name="LORBIT">     0</i>
   <v name="RWIGS">     -1.00000000     -1.00000000</v>
   <i type="int" name="NEDOS">   301</i>
   <i name="EMIN">     10.00000000</i>
   <i name="EMAX">    -10.00000000</i>
   <i name="EFERMI">      0.00000000</i>
  </separator>
  <separator name="writing" >
   <i type="int" name="NWRITE">     2</i>
   <i type="logical" name="LWAVE"> T  </i>
   <i type="logical" name="LDOWNSAMPLE"> F  </i>
   <i type="logical" name="LCHARG"> T  </i>
   <i type="logical" name="LPARD"> F  </i>
   <i type="logical" name="LVTOT"> F  </i>
   <i type="logical" name="LVHAR"> T  </i>
   <i type="logical" name="LELF"> F  </i>
   <i type="logical" name="LOPTICS"> F  </i>
   <v name="STM">      0.00000000      0.00000000      0.00000000      0.00000000      0.00000000      0.00000000      0.00000000</v>
  </separator>
  <separator name="performance" >
   <i type="int" name="NPAR">     4</i>
   <i type="int" name="NSIM">     4</i>
   <i type="int" name="NBLK">    -1</i>
   <i type="logical" name="LPLANE"> T  </i>
   <i type="logical" name="LSCALAPACK"> T  </i>
   <i type="logical" name="LSCAAWARE"> F  </i>
   <i type="logical" name="LSCALU"> F  </i>
   <i type="logical" name="LASYNC"> F  </i>
   <i type="logical" name="LORBITALREAL"> F  </i>
  </separator>
  <separator name="miscellaneous" >
   <i type="int" name="IDIOT">     3</i>
   <i type="int" name="ISPECIAL">     0</i>
   <i type="logical" name="LMUSIC"> F  </i>
   <v name="POMASS">     54.93800000     16.00000000</v>
   <v name="DARWINR">      0.00000000      0.00000000</v>
   <v name="DARWINV">      1.00000000      1.00000000</v>
   <i type="logical" name="LCORR"> T  </i>
  </separator>
  <i type="logical" name="GGA_COMPAT"> T  </i>
  <i type="logical" name="LBERRY"> F  </i>
  <i type="int" name="ICORELEVEL">     0</i>
  <i type="logical" name="LDAU"> F  </i>
  <i type="int" name="I_CONSTRAINED_M">     0</i>
  <separator name="electronic exchange-correlation" >
   <i type="string" name="GGA">PE</i>
   <i type="int" name="VOSKOWN">     0</i>
   <i type="logical" name="LHFCALC"> F  </i>
   <i type="string" name="PRECFOCK"></i>
   <i type="logical" name="LSYMGRAD"> F  </i>
   <i type="logical" name="LHFONE"> F  </i>
   <i type="logical" name="LRHFCALC"> F  </i>
   <i type="logical" name="LTHOMAS"> F  </i>
   <i type="logical" name="LMODELHF"> F  </i>
   <i name="ENCUT4O">     -1.00000000</i>
   <i type="int" name="EXXOEP">     0</i>
   <i type="int" name="FOURORBIT">     0</i>
   <i name="AEXX">      0.00000000</i>
   <i name="HFALPHA">      0.00000000</i>
   <i name="MCALPHA">      0.00000000</i>
   <i name="ALDAX">      1.00000000</i>
   <i name="AGGAX">      1.00000000</i>
   <i name="ALDAC">      1.00000000</i>
   <i name="AGGAC">      1.00000000</i>
   <i type="int" name="NKREDX">     1</i>
   <i type="int" name="NKREDY">     1</i>
   <i type="int" name="NKREDZ">     1</i>
   <i type="logical" name="SHIFTRED"> F  </i>
   <i type="logical" name="ODDONLY"> F  </i>
   <i type="logical" name="EVENONLY"> F  </i>
   <i type="int" name="LMAXFOCK">     0</i>
   <i type="int" name="NMAXFOCKAE">     0</i>
   <i type="logical" name="LFOCKAEDFT"> F  </i>
   <i name="HFSCREEN">      0.00000000</i>
   <i name="HFSCREENC">      0.00000000</i>
   <i type="int" name="NBANDSGWLOW">     0</i>
  </separator>
  <separator name="vdW DFT" >
   <i type="logical" name="LUSE_VDW"> F  </i>
   <i name="Zab_VDW">     -0.84910000</i>
   <i name="PARAM1">      0.12340000</i>
   <i name="PARAM2">      1.00000000</i>
   <i name="PARAM3">      0.00000000</i>
  </separator>
  <separator name="model GW" >
   <i type="int" name="MODEL_GW">     0</i>
   <i name="MODEL_EPS0">      6.19501669</i>
   <i name="MODEL_ALPHA">      1.00000000</i>
  </separator>
  <separator name="linear response parameters" >
   <i type="logical" name="LEPSILON"> F  </i>
   <i type="logical" name="LRPA"> F  </i>
   <i type="logical" name="LNABLA"> F  </i>
   <i type="logical" name="LVEL"> F  </i>
   <i type="int" name="KINTER">     0</i>
   <i name="CSHIFT">      0.10000000</i>
   <i name="OMEGAMAX">     -1.00000000</i>
   <i name="DEG_THRESHOLD">      0.00200000</i>
   <i name="RTIME">     -0.10000000</i>
   <i name="WPLASMAI">      0.00000000</i>
   <v name="DFIELD">      0.00000000      0.00000000      0.00000000</v>
   <v name="WPLASMA">      0.00000000      0.00000000      0.00000000      0.00000000      0.00000000      0.00000000      0.00000000      0.00000000      0.00000000</v>
  </separator>
  <separator name="orbital magnetization" >
   <i type="logical" name="NUCIND"> F  </i>
   <v name="MAGPOS">      0.00000000      0.00000000      0.00000000</v>
   <i type="logical" name="LNICSALL"> T  </i>
   <i type="logical" name="ORBITALMAG"> F  </i>
   <i type="logical" name="LMAGBLOCH"> F  </i>
   <i type="logical" name="LCHIMAG"> F  </i>
   <i type="logical" name="LGAUGE"> T  </i>
   <i type="int" name="MAGATOM">     0</i>
   <v name="MAGDIPOL">      0.00000000      0.00000000      0.00000000</v>
   <v name="AVECCONST">      0.00000000      0.00000000      0.00000000</v>
  </separator>
  <separator name="response functions" >
   <i type="logical" name="LADDER"> F  </i>
   <i type="logical" name="LRPAFORCE"> F  </i>
   <i type="logical" name="LFXC"> F  </i>
   <i type="logical" name="LHARTREE"> T  </i>
   <i type="int" name="IBSE">     0</i>
   <v type="int" name="KPOINT">    -1     0     0     0</v>
   <i type="logical" name="LTCTE"> F  </i>
   <i type="logical" name="LTETE"> F  </i>
   <i type="logical" name="LTRIPLET"> F  </i>
   <i type="logical" name="LFXCEPS"> F  </i>
   <i type="logical" name="LFXHEG"> F  </i>
   <i type="int" name="NATURALO">     2</i>
   <i type="logical" name="L2ORDER"> F  </i>
   <i type="logical" name="LMP2LT"> F  </i>
   <i type="logical" name="LUSEW"> F  </i>
   <i name="ENCUTGW">     -2.00000000</i>
   <i name="ENCUTGWSOFT">     -2.00000000</i>
   <i name="ENCUTLF">     -1.00000000</i>
   <i type="int" name="LMAXMP2">    -1</i>
   <i name="SCISSOR">      0.00000000</i>
   <i type="int" name="NOMEGA">     0</i>
   <i type="int" name="NOMEGAR">     0</i>
   <i type="int" name="NBANDSGW">    -1</i>
   <i type="int" name="NBANDSO">    -1</i>
   <i type="int" name="NBANDSV">    -1</i>
   <i type="int" name="NELM">   100</i>
   <i type="int" name="NELMHF">     1</i>
   <i type="int" name="DIM">     3</i>
   <i type="int" name="ANTIRES">     0</i>
   <i name="OMEGAMAX">    -30.00000000</i>
   <i name="OMEGAMIN">    -30.00000000</i>
   <i name="OMEGATL">   -200.00000000</i>
   <i type="int" name="OMEGAGRID">   140</i>
   <i name="CSHIFT">     -0.10000000</i>
   <i type="logical" name="SELFENERGY"> F  </i>
   <i type="logical" name="LSPECTRAL"> F  </i>
   <i type="logical" name="LSPECTRALGW"> F  </i>
   <i type="logical" name="LSINGLES"> F  </i>
   <i type="logical" name="LFERMIGW"> F  </i>
   <i type="logical" name="ODDONLYGW"> F  </i>
   <i type="logical" name="EVENONLYGW"> F  </i>
   <i type="int" name="NKREDLFX">     1</i>
   <i type="int" name="NKREDLFY">     1</i>
   <i type="int" name="NKREDLFZ">     1</i>
   <i type="int" name="MAXMEM">  2800</i>
   <i type="int" name="TELESCOPE">     0</i>
   <i type="int" name="TAUPAR">     1</i>
   <i type="int" name="OMEGAPAR">    -1</i>
   <i name="LAMBDA">      1.00000000</i>
  </separator>
  <separator name="External order field" >
   <i name="OFIELD_KAPPA">      0.00000000</i>
   <v name="OFIELD_K">      0.00000000      0.00000000      0.00000000</v>
   <i name="OFIELD_Q6_NEAR">      0.00000000</i>
   <i name="OFIELD_Q6_FAR">      0.00000000</i>
   <i name="OFIELD_A">      0.00000000</i>
  </separator>
 </parameters>
 <atominfo>
  <atoms>      12 </atoms>
  <types>       2 </types>
  <array name="atoms" >
   <dimension dim="1">ion</dimension>
   <field type="string">element</field>
   <field type="int">atomtype</field>
   <set>
    <rc><c>Mn</c><c>   1</c></rc>
    <rc><c>Mn</c><c>   1</c></rc>
    <rc><c>Mn</c><c>   1</c></rc>
    <rc><c>Mn</c><c>   1</c></rc>
    <rc><c>O </c><c>   2</c></rc>
    <rc><c>O </c><c>   2</c></rc>
    <rc><c>O </c><c>   2</c></rc>
    <rc><c>O </c><c>   2</c></rc>
    <rc><c>O </c><c>   2</c></rc>
    <rc><c>O </c><c>   2</c></rc>
    <rc><c>O </c><c>   2</c></rc>
    <rc><c>O </c><c>   2</c></rc>
   </set>
  </array>
  <array name="atomtypes" >
   <dimension dim="1">type</dimension>
   <field type="int">atomspertype</field>
   <field type="string">element</field>
   <field>mass</field>
   <field>valence</field>
   <field type="string">pseudopotential</field>
   <set>
    <rc><c>   4</c><c>Mn</c><c>     54.93800000</c><c>     13.00000000</c><c>  PAW_PBE Mn_pv 02Aug2007               </c></rc>
    <rc><c>   8</c><c>O </c><c>     16.00000000</c><c>      6.00000000</c><c>  PAW_PBE O 08Apr2002                   </c></rc>
   </set>
  </array>
 </atominfo>
 <structure name="initialpos" >
  <crystal>
   <varray name="basis" >
    <v>       2.87531163      -0.00000334      -0.00000048 </v>
    <v>      -0.00000670       4.65168200       0.00001239 </v>
    <v>       0.00000013       0.00001928       9.26355187 </v>
   </varray>
   <i name="volume">    123.90033379 </i>
   <varray name="rec_basis" >
    <v>       0.34778839       0.00000050      -0.00000000 </v>
    <v>       0.00000025       0.21497600      -0.00000045 </v>
    <v>       0.00000002      -0.00000029       0.10794995 </v>
   </varray>
  </crystal>
  <varray name="positions" >
   <v>       0.24999934       0.03511357       0.86540186 </v>
   <v>       0.74999935       0.96489059       0.13459893 </v>
   <v>       0.75000091       0.53511210       0.63459890 </v>
   <v>       0.25000045       0.46488653       0.36540153 </v>
   <v>       0.25000071       0.71267705       0.53058355 </v>
   <v>       0.74999975       0.21267748       0.96941626 </v>
   <v>       0.24999903       0.78732357       0.03058459 </v>
   <v>       0.75000019       0.28732365       0.46941768 </v>
   <v>       0.24999964       0.15763380       0.22636992 </v>
   <v>       0.25000066       0.34236557       0.72636918 </v>
   <v>       0.75000552       0.65763100       0.27362860 </v>
   <v>       0.74999444       0.84236609       0.77362999 </v>
  </varray>
 </structure>
 <calculation>
  <scstep>
   <time name="dav">   19.75   24.84</time>
   <time name="total">   20.99   26.39</time>
   <energy>
    <i name="alphaZ">    448.99778957 </i>
    <i name="ewald">  -7469.44914856 </i>
    <i name="hartreedc">  -3614.87456155 </i>
    <i name="XCdc">    499.07038910 </i>
    <i name="pawpsdc">  12014.93343125 </i>
    <i name="pawaedc"> -12254.22392895 </i>
    <i name="eentropy">     -0.00000000 </i>
    <i name="bandstr">  -1279.97118750 </i>
    <i name="atom">  11559.90638050 </i>
    <i name="e_fr_energy">    -95.61083612 </i>
    <i name="e_wo_entrp">    -95.61083612 </i>
    <i name="e_0_energy">    -95.61083612 </i>
   </energy>
  </scstep>
  <scstep>
   <time name="diag">    4.30    5.75</time>
   <time name="diis">   11.06   14.62</time>
   <time name="orth">    0.74    1.04</time>
   <time name="total">   17.35   22.96</time>
   <energy>
    <i name="e_fr_energy">    -95.61083771 </i>
    <i name="e_wo_entrp">    -95.61083771 </i>
    <i name="e_0_energy">    -95.61083771 </i>
   </energy>
  </scstep>
  <scstep>
   <time name="diag">    5.59    5.79</time>
   <time name="diis">   11.16   11.18</time>
   <time name="orth">    1.06    1.06</time>
   <time name="total">   19.22   19.51</time>
   <energy>
    <i name="e_fr_energy">    -95.61083551 </i>
    <i name="e_wo_entrp">    -95.61083551 </i>
    <i name="e_0_energy">    -95.61083551 </i>
   </energy>
  </scstep>
  <scstep>
   <time name="diag">    5.71    5.72</time>
   <time name="diis">    9.00    9.01</time>
   <time name="orth">    1.01    1.02</time>
   <time name="total">   16.21   16.24</time>
   <energy>
    <i name="alphaZ">    448.99778957 </i>
    <i name="ewald">  -7469.44914856 </i>
    <i name="hartreedc">  -3614.87467058 </i>
    <i name="XCdc">    499.07045521 </i>
    <i name="pawpsdc">  12014.88944667 </i>
    <i name="pawaedc"> -12254.18095077 </i>
    <i name="eentropy">     -0.00000000 </i>
    <i name="bandstr">  -1279.97013816 </i>
    <i name="atom">  11559.90638050 </i>
    <i name="e_fr_energy">    -95.61083611 </i>
    <i name="e_wo_entrp">    -95.61083611 </i>
    <i name="e_0_energy">    -95.61083611 </i>
   </energy>
  </scstep>
  <structure>
   <crystal>
    <varray name="basis" >
     <v>       2.87531163      -0.00000334      -0.00000048 </v>
     <v>      -0.00000670       4.65168200       0.00001239 </v>
     <v>       0.00000013       0.00001928       9.26355187 </v>
    </varray>
    <i name="volume">    123.90033379 </i>
    <varray name="rec_basis" >
     <v>       0.34778839       0.00000050      -0.00000000 </v>
     <v>       0.00000025       0.21497600      -0.00000045 </v>
     <v>       0.00000002      -0.00000029       0.10794995 </v>
    </varray>
   </crystal>
   <varray name="positions" >
    <v>       0.24999934       0.03511357       0.86540186 </v>
    <v>       0.74999935       0.96489059       0.13459893 </v>
    <v>       0.75000091       0.53511210       0.63459890 </v>
    <v>       0.25000045       0.46488653       0.36540153 </v>
    <v>       0.25000071       0.71267705       0.53058355 </v>
    <v>       0.74999975       0.21267748       0.96941626 </v>
    <v>       0.24999903       0.78732357       0.03058459 </v>
    <v>       0.75000019       0.28732365       0.46941768 </v>
    <v>       0.24999964       0.15763380       0.22636992 </v>
    <v>       0.25000066       0.34236557       0.72636918 </v>
    <v>       0.75000552       0.65763100       0.27362860 </v>
    <v>       0.74999444       0.84236609       0.77362999 </v>
   </varray>
  </structure>
  <varray name="forces" >
   <v>      -0.00008809       0.01668683       0.01225493 </v>
   <v>       0.00003579      -0.01715247      -0.01238101 </v>
   <v>      -0.00004312       0.01703696      -0.01242081 </v>
   <v>       0.00009340      -0.01677531       0.01236839 </v>
   <v>       0.00002887       0.00222114      -0.00380911 </v>
   <v>      -0.00000594       0.00233647       0.00368729 </v>
   <v>      -0.00001904      -0.00215542      -0.00379486 </v>
   <v>       0.00000768      -0.00230072       0.00362379 </v>
   <v>       0.00003215      -0.00582533       0.00199471 </v>
   <v>      -0.00003872       0.00584234       0.00200098 </v>
   <v>      -0.00018086      -0.00590764      -0.00177145 </v>
   <v>       0.00017787       0.00599315      -0.00175285 </v>
  </varray>
  <varray name="stress" >
   <v>       1.05951680       0.00054559       0.00009534 </v>
   <v>       0.00054582       1.75047648      -0.00229432 </v>
   <v>       0.00009562      -0.00229499      -0.56218388 </v>
  </varray>
  <energy>
   <i name="e_fr_energy">    -95.61083611 </i>
   <i name="e_wo_entrp">    -95.61083611 </i>
   <i name="e_0_energy">     -0.00000000 </i>
  </energy>
  <time name="totalsc">   93.95  106.17</time>
  <eigenvalues>
   <array>
    <dimension dim="1">band</dimension>
    <dimension dim="2">kpoint</dimension>
    <dimension dim="3">spin</dimension>
    <field>eigene</field>
    <field>occ</field>
    <set>
     <set comment="spin 1">
      <set comment="kpoint 1">
       <r>  -46.5872    1.0000 </r>
       <r>  -46.5781    1.0000 </r>
       <r>  -46.5776    1.0000 </r>
       <r>  -46.5750    1.0000 </r>
       <r>  -46.5628    1.0000 </r>
       <r>  -46.5596    1.0000 </r>
       <r>  -46.5257    1.0000 </r>
       <r>  -46.5240    1.0000 </r>
       <r>  -46.5005    1.0000 </r>
       <r>  -46.4957    1.0000 </r>
       <r>  -46.4920    1.0000 </r>
       <r>  -46.4888    1.0000 </r>
       <r>  -15.6557    1.0000 </r>
       <r>  -15.0590    1.0000 </r>
       <r>  -14.7753    1.0000 </r>
       <r>  -13.9975    1.0000 </r>
       <r>  -13.7456    1.0000 </r>
       <r>  -13.6741    1.0000 </r>
       <r>  -13.6013    1.0000 </r>
       <r>  -13.5643    1.0000 </r>
       <r>   -3.3310    1.0000 </r>
       <r>   -2.6791    1.0000 </r>
       <r>   -2.5902    1.0000 </r>
       <r>   -2.4081    1.0000 </r>
       <r>   -1.9670    1.0000 </r>
       <r>   -1.7162    1.0000 </r>
       <r>   -1.6602    1.0000 </r>
       <r>   -1.6089    1.0000 </r>
       <r>   -1.3957    1.0000 </r>
       <r>   -1.3867    1.0000 </r>
       <r>   -1.2435    1.0000 </r>
       <r>   -0.5622    1.0000 </r>
       <r>   -0.4643    1.0000 </r>
       <r>    0.2396    1.0000 </r>
       <r>    0.5461    1.0000 </r>
       <r>    0.5839    1.0000 </r>
       <r>    0.7224    1.0000 </r>
       <r>    0.8072    1.0000 </r>
       <r>    0.8537    1.0000 </r>
       <r>    1.3373    1.0000 </r>
       <r>    1.5279    1.0000 </r>
       <r>    1.5767    1.0000 </r>
       <r>    1.7265    1.0000 </r>
       <r>    2.1008    1.0000 </r>
       <r>    2.3294    1.0000 </r>
       <r>    2.3353    1.0000 </r>
       <r>    2.4952    1.0000 </r>
       <r>    2.5843    1.0000 </r>
       <r>    2.6286    1.0000 </r>
       <r>    2.6718    1.0000 </r>
       <r>    2.7205    1.0000 </r>
       <r>    2.9016    1.0000 </r>
       <r>    3.0942    1.0000 </r>
       <r>    3.3417    1.0000 </r>
       <r>    3.6217    1.0000 </r>
       <r>    3.8305    1.0000 </r>
       <r>    4.9361    0.0000 </r>
       <r>    5.3686    0.0000 </r>
       <r>    6.3832    0.0000 </r>
       <r>    6.4976    0.0000 </r>
       <r>    6.5013    0.0000 </r>
       <r>    6.6295    0.0000 </r>
       <r>    6.6421    0.0000 </r>
       <r>    7.0732    0.0000 </r>
       <r>   11.0770    0.0000 </r>
       <r>   13.0718    0.0000 </r>
       <r>   13.6992    0.0000 </r>
       <r>   14.7103    0.0000 </r>
       <r>   15.0384    0.0000 </r>
       <r>   16.2024    0.0000 </r>
       <r>   16.4788    0.0000 </r>
       <r>   17.3560    0.0000 </r>
      </set>
      <set comment="kpoint 2">
       <r>  -46.5879    1.0000 </r>
       <r>  -46.5862    1.0000 </r>
       <r>  -46.5855    1.0000 </r>
       <r>  -46.5823    1.0000 </r>
       <r>  -46.5678    1.0000 </r>
       <r>  -46.5657    1.0000 </r>
       <r>  -46.5245    1.0000 </r>
       <r>  -46.5227    1.0000 </r>
       <r>  -46.4993    1.0000 </r>
       <r>  -46.4957    1.0000 </r>
       <r>  -46.4914    1.0000 </r>
       <r>  -46.4882    1.0000 </r>
       <r>  -15.5624    1.0000 </r>
       <r>  -14.9886    1.0000 </r>
       <r>  -14.7054    1.0000 </r>
       <r>  -13.9655    1.0000 </r>
       <r>  -13.7541    1.0000 </r>
       <r>  -13.6823    1.0000 </r>
       <r>  -13.6246    1.0000 </r>
       <r>  -13.5830    1.0000 </r>
       <r>   -3.1961    1.0000 </r>
       <r>   -2.5669    1.0000 </r>
       <r>   -2.4923    1.0000 </r>
       <r>   -2.3075    1.0000 </r>
       <r>   -1.8889    1.0000 </r>
       <r>   -1.8668    1.0000 </r>
       <r>   -1.8204    1.0000 </r>
       <r>   -1.7126    1.0000 </r>
       <r>   -1.3193    1.0000 </r>
       <r>   -1.2238    1.0000 </r>
       <r>   -1.1762    1.0000 </r>
       <r>   -0.4738    1.0000 </r>
       <r>   -0.3990    1.0000 </r>
       <r>   -0.0530    1.0000 </r>
       <r>    0.3228    1.0000 </r>
       <r>    0.3355    1.0000 </r>
       <r>    0.6821    1.0000 </r>
       <r>    0.8233    1.0000 </r>
       <r>    0.8518    1.0000 </r>
       <r>    1.0937    1.0000 </r>
       <r>    1.3140    1.0000 </r>
       <r>    1.4853    1.0000 </r>
       <r>    1.5879    1.0000 </r>
       <r>    2.2342    1.0000 </r>
       <r>    2.2566    1.0000 </r>
       <r>    2.2842    1.0000 </r>
       <r>    2.4558    1.0000 </r>
       <r>    2.5366    1.0000 </r>
       <r>    2.6888    1.0000 </r>
       <r>    2.8325    1.0000 </r>
       <r>    2.8876    1.0000 </r>
       <r>    2.9204    1.0000 </r>
       <r>    3.2764    1.0000 </r>
       <r>    3.3352    1.0000 </r>
       <r>    3.6492    1.0000 </r>
       <r>    3.8370    1.0000 </r>
       <r>    5.0005    0.0000 </r>
       <r>    5.3934    0.0000 </r>
       <r>    6.1757    0.0000 </r>
       <r>    6.2446    0.0000 </r>
       <r>    6.3827    0.0000 </r>
       <r>    6.4327    0.0000 </r>
       <r>    6.5644    0.0000 </r>
       <r>    7.0123    0.0000 </r>
       <r>   11.4227    0.0000 </r>
       <r>   13.3586    0.0000 </r>
       <r>   13.9407    0.0000 </r>
       <r>   15.0982    0.0000 </r>
       <r>   15.4301    0.0000 </r>
       <r>   16.4873    0.0000 </r>
       <r>   16.7848    0.0000 </r>
       <r>   17.4265    0.0000 </r>
      </set>
      <set comment="kpoint 3">
       <r>  -46.6130    1.0000 </r>
       <r>  -46.6119    1.0000 </r>
       <r>  -46.6061    1.0000 </r>
       <r>  -46.6018    1.0000 </r>
       <r>  -46.5707    1.0000 </r>
       <r>  -46.5613    1.0000 </r>
       <r>  -46.5225    1.0000 </r>
       <r>  -46.5201    1.0000 </r>
       <r>  -46.4962    1.0000 </r>
       <r>  -46.4957    1.0000 </r>
       <r>  -46.4902    1.0000 </r>
       <r>  -46.4869    1.0000 </r>
       <r>  -15.3000    1.0000 </r>
       <r>  -14.7970    1.0000 </r>
       <r>  -14.5158    1.0000 </r>
       <r>  -13.8945    1.0000 </r>
       <r>  -13.7753    1.0000 </r>
       <r>  -13.7040    1.0000 </r>
       <r>  -13.6905    1.0000 </r>
       <r>  -13.6330    1.0000 </r>
       <r>   -2.8248    1.0000 </r>
       <r>   -2.2790    1.0000 </r>
       <r>   -2.2363    1.0000 </r>
       <r>   -2.0764    1.0000 </r>
       <r>   -2.0172    1.0000 </r>
       <r>   -2.0149    1.0000 </r>
       <r>   -1.8254    1.0000 </r>
       <r>   -1.7021    1.0000 </r>
       <r>   -1.3734    1.0000 </r>
       <r>   -1.0093    1.0000 </r>
       <r>   -0.9373    1.0000 </r>
       <r>   -0.8131    1.0000 </r>
       <r>   -0.6750    1.0000 </r>
       <r>   -0.3882    1.0000 </r>
       <r>    0.1062    1.0000 </r>
       <r>    0.1624    1.0000 </r>
       <r>    0.4098    1.0000 </r>
       <r>    0.6319    1.0000 </r>
       <r>    0.6643    1.0000 </r>
       <r>    0.9591    1.0000 </r>
       <r>    1.1548    1.0000 </r>
       <r>    1.2765    1.0000 </r>
       <r>    1.3335    1.0000 </r>
       <r>    1.9885    1.0000 </r>
       <r>    2.2327    1.0000 </r>
       <r>    2.3964    1.0000 </r>
       <r>    2.4153    1.0000 </r>
       <r>    2.5157    1.0000 </r>
       <r>    2.8487    1.0000 </r>
       <r>    2.8587    1.0000 </r>
       <r>    2.9998    1.0000 </r>
       <r>    3.0306    1.0000 </r>
       <r>    3.2558    1.0000 </r>
       <r>    3.4856    1.0000 </r>
       <r>    3.7374    1.0000 </r>
       <r>    3.8094    1.0000 </r>
       <r>    5.1500    0.0000 </r>
       <r>    5.2286    0.0000 </r>
       <r>    5.6605    0.0000 </r>
       <r>    5.9068    0.0000 </r>
       <r>    6.0450    0.0000 </r>
       <r>    6.2250    0.0000 </r>
       <r>    6.5781    0.0000 </r>
       <r>    6.7825    0.0000 </r>
       <r>   12.3179    0.0000 </r>
       <r>   14.0459    0.0000 </r>
       <r>   14.5211    0.0000 </r>
       <r>   16.0621    0.0000 </r>
       <r>   16.3936    0.0000 </r>
       <r>   17.2267    0.0000 </r>
       <r>   17.5470    0.0000 </r>
       <r>   17.5705    0.0000 </r>
      </set>
      <set comment="kpoint 4">
       <r>  -46.6434    1.0000 </r>
       <r>  -46.6432    1.0000 </r>
       <r>  -46.6385    1.0000 </r>
       <r>  -46.6341    1.0000 </r>
       <r>  -46.5597    1.0000 </r>
       <r>  -46.5517    1.0000 </r>
       <r>  -46.5221    1.0000 </r>
       <r>  -46.5195    1.0000 </r>
       <r>  -46.4945    1.0000 </r>
       <r>  -46.4924    1.0000 </r>
       <r>  -46.4887    1.0000 </r>
       <r>  -46.4857    1.0000 </r>
       <r>  -14.9205    1.0000 </r>
       <r>  -14.5385    1.0000 </r>
       <r>  -14.2643    1.0000 </r>
       <r>  -13.8555    1.0000 </r>
       <r>  -13.7974    1.0000 </r>
       <r>  -13.7881    1.0000 </r>
       <r>  -13.7332    1.0000 </r>
       <r>  -13.6941    1.0000 </r>
       <r>   -2.3562    1.0000 </r>
       <r>   -2.1669    1.0000 </r>
       <r>   -2.1045    1.0000 </r>
       <r>   -2.0407    1.0000 </r>
       <r>   -1.9639    1.0000 </r>
       <r>   -1.9446    1.0000 </r>
       <r>   -1.9038    1.0000 </r>
       <r>   -1.7791    1.0000 </r>
       <r>   -1.3030    1.0000 </r>
       <r>   -1.1700    1.0000 </r>
       <r>   -1.1404    1.0000 </r>
       <r>   -0.8093    1.0000 </r>
       <r>   -0.5720    1.0000 </r>
       <r>   -0.3950    1.0000 </r>
       <r>   -0.2102    1.0000 </r>
       <r>    0.1752    1.0000 </r>
       <r>    0.3027    1.0000 </r>
       <r>    0.3518    1.0000 </r>
       <r>    0.4420    1.0000 </r>
       <r>    0.9240    1.0000 </r>
       <r>    1.1433    1.0000 </r>
       <r>    1.2108    1.0000 </r>
       <r>    1.2507    1.0000 </r>
       <r>    1.5706    1.0000 </r>
       <r>    2.1105    1.0000 </r>
       <r>    2.1256    1.0000 </r>
       <r>    2.3637    1.0000 </r>
       <r>    2.4880    1.0000 </r>
       <r>    2.7541    1.0000 </r>
       <r>    2.7733    1.0000 </r>
       <r>    2.8000    1.0000 </r>
       <r>    2.9645    1.0000 </r>
       <r>    3.4425    1.0000 </r>
       <r>    3.4885    1.0000 </r>
       <r>    3.7025    1.0000 </r>
       <r>    3.8099    1.0000 </r>
       <r>    4.9710    0.0000 </r>
       <r>    5.2384    0.0000 </r>
       <r>    5.2948    0.0000 </r>
       <r>    5.5458    0.0000 </r>
       <r>    5.9177    0.0000 </r>
       <r>    6.4726    0.0000 </r>
       <r>    6.4775    0.0000 </r>
       <r>    6.6433    0.0000 </r>
       <r>   13.4918    0.0000 </r>
       <r>   14.8450    0.0000 </r>
       <r>   15.1840    0.0000 </r>
       <r>   17.2054    0.0000 </r>
       <r>   17.5116    0.0000 </r>
       <r>   17.7984    0.0000 </r>
       <r>   17.9317    0.0000 </r>
       <r>   18.0728    0.0000 </r>
      </set>
      <set comment="kpoint 5">
       <r>  -46.6680    1.0000 </r>
       <r>  -46.6666    1.0000 </r>
       <r>  -46.6652    1.0000 </r>
       <r>  -46.6617    1.0000 </r>
       <r>  -46.5463    1.0000 </r>
       <r>  -46.5410    1.0000 </r>
       <r>  -46.5249    1.0000 </r>
       <r>  -46.5242    1.0000 </r>
       <r>  -46.4913    1.0000 </r>
       <r>  -46.4892    1.0000 </r>
       <r>  -46.4876    1.0000 </r>
       <r>  -46.4859    1.0000 </r>
       <r>  -14.5059    1.0000 </r>
       <r>  -14.2838    1.0000 </r>
       <r>  -14.0399    1.0000 </r>
       <r>  -13.9327    1.0000 </r>
       <r>  -13.8987    1.0000 </r>
       <r>  -13.8047    1.0000 </r>
       <r>  -13.7725    1.0000 </r>
       <r>  -13.7430    1.0000 </r>
       <r>   -2.5999    1.0000 </r>
       <r>   -2.4711    1.0000 </r>
       <r>   -2.1054    1.0000 </r>
       <r>   -2.0915    1.0000 </r>
       <r>   -2.0177    1.0000 </r>
       <r>   -1.8402    1.0000 </r>
       <r>   -1.6767    1.0000 </r>
       <r>   -1.5945    1.0000 </r>
       <r>   -1.2527    1.0000 </r>
       <r>   -1.0732    1.0000 </r>
       <r>   -0.9443    1.0000 </r>
       <r>   -0.6406    1.0000 </r>
       <r>   -0.6038    1.0000 </r>
       <r>   -0.2191    1.0000 </r>
       <r>   -0.1617    1.0000 </r>
       <r>    0.1638    1.0000 </r>
       <r>    0.3358    1.0000 </r>
       <r>    0.3465    1.0000 </r>
       <r>    0.6597    1.0000 </r>
       <r>    0.7131    1.0000 </r>
       <r>    0.7978    1.0000 </r>
       <r>    1.2088    1.0000 </r>
       <r>    1.2627    1.0000 </r>
       <r>    1.3739    1.0000 </r>
       <r>    1.8928    1.0000 </r>
       <r>    2.0359    1.0000 </r>
       <r>    2.1037    1.0000 </r>
       <r>    2.2037    1.0000 </r>
       <r>    2.3639    1.0000 </r>
       <r>    2.4182    1.0000 </r>
       <r>    2.6281    1.0000 </r>
       <r>    2.7199    1.0000 </r>
       <r>    3.5713    1.0000 </r>
       <r>    3.5873    1.0000 </r>
       <r>    3.6025    1.0000 </r>
       <r>    3.7988    1.0000 </r>
       <r>    4.9370    0.0000 </r>
       <r>    5.1295    0.0000 </r>
       <r>    5.2654    0.0000 </r>
       <r>    5.3739    0.0000 </r>
       <r>    6.0467    0.0000 </r>
       <r>    6.2670    0.0000 </r>
       <r>    6.7141    0.0000 </r>
       <r>    6.7582    0.0000 </r>
       <r>   14.7402    0.0000 </r>
       <r>   15.5437    0.0000 </r>
       <r>   15.7308    0.0000 </r>
       <r>   17.0588    0.0000 </r>
       <r>   17.6365    0.0000 </r>
       <r>   17.6771    0.0000 </r>
       <r>   17.9929    0.0000 </r>
       <r>   18.3858    0.0000 </r>
      </set>
      <set comment="kpoint 6">
       <r>  -46.6764    1.0000 </r>
       <r>  -46.6764    1.0000 </r>
       <r>  -46.6739    1.0000 </r>
       <r>  -46.6738    1.0000 </r>
       <r>  -46.5337    1.0000 </r>
       <r>  -46.5337    1.0000 </r>
       <r>  -46.5315    1.0000 </r>
       <r>  -46.5314    1.0000 </r>
       <r>  -46.4879    1.0000 </r>
       <r>  -46.4878    1.0000 </r>
       <r>  -46.4876    1.0000 </r>
       <r>  -46.4875    1.0000 </r>
       <r>  -14.1529    1.0000 </r>
       <r>  -14.1529    1.0000 </r>
       <r>  -14.0843    1.0000 </r>
       <r>  -14.0842    1.0000 </r>
       <r>  -13.8480    1.0000 </r>
       <r>  -13.8480    1.0000 </r>
       <r>  -13.7855    1.0000 </r>
       <r>  -13.7855    1.0000 </r>
       <r>   -2.7395    1.0000 </r>
       <r>   -2.7395    1.0000 </r>
       <r>   -2.0838    1.0000 </r>
       <r>   -2.0837    1.0000 </r>
       <r>   -1.9523    1.0000 </r>
       <r>   -1.9523    1.0000 </r>
       <r>   -1.5081    1.0000 </r>
       <r>   -1.5081    1.0000 </r>
       <r>   -1.0950    1.0000 </r>
       <r>   -1.0950    1.0000 </r>
       <r>   -0.7956    1.0000 </r>
       <r>   -0.7956    1.0000 </r>
       <r>   -0.2002    1.0000 </r>
       <r>   -0.2001    1.0000 </r>
       <r>   -0.0073    1.0000 </r>
       <r>   -0.0072    1.0000 </r>
       <r>    0.2860    1.0000 </r>
       <r>    0.2860    1.0000 </r>
       <r>    0.6891    1.0000 </r>
       <r>    0.6891    1.0000 </r>
       <r>    1.0670    1.0000 </r>
       <r>    1.0670    1.0000 </r>
       <r>    1.3225    1.0000 </r>
       <r>    1.3225    1.0000 </r>
       <r>    1.9395    1.0000 </r>
       <r>    1.9395    1.0000 </r>
       <r>    1.9959    1.0000 </r>
       <r>    1.9959    1.0000 </r>
       <r>    2.0871    1.0000 </r>
       <r>    2.0872    1.0000 </r>
       <r>    2.5336    1.0000 </r>
       <r>    2.5336    1.0000 </r>
       <r>    3.6004    1.0000 </r>
       <r>    3.6005    1.0000 </r>
       <r>    3.7123    1.0000 </r>
       <r>    3.7123    1.0000 </r>
       <r>    5.0252    0.0000 </r>
       <r>    5.0253    0.0000 </r>
       <r>    5.3029    0.0000 </r>
       <r>    5.3029    0.0000 </r>
       <r>    6.1697    0.0000 </r>
       <r>    6.1698    0.0000 </r>
       <r>    6.8123    0.0000 </r>
       <r>    6.8123    0.0000 </r>
       <r>   15.9258    0.0000 </r>
       <r>   15.9260    0.0000 </r>
       <r>   15.9545    0.0000 </r>
       <r>   15.9545    0.0000 </r>
       <r>   17.2957    0.0000 </r>
       <r>   17.2958    0.0000 </r>
       <r>   18.4799    0.0000 </r>
       <r>   18.4800    0.0000 </r>
      </set>
      <set comment="kpoint 7">
       <r>  -46.5868    1.0000 </r>
       <r>  -46.5782    1.0000 </r>
       <r>  -46.5780    1.0000 </r>
       <r>  -46.5752    1.0000 </r>
       <r>  -46.5626    1.0000 </r>
       <r>  -46.5598    1.0000 </r>
       <r>  -46.5256    1.0000 </r>
       <r>  -46.5240    1.0000 </r>
       <r>  -46.5005    1.0000 </r>
       <r>  -46.4950    1.0000 </r>
       <r>  -46.4927    1.0000 </r>
       <r>  -46.4888    1.0000 </r>
       <r>  -15.6123    1.0000 </r>
       <r>  -15.0648    1.0000 </r>
       <r>  -14.7391    1.0000 </r>
       <r>  -14.0378    1.0000 </r>
       <r>  -13.7434    1.0000 </r>
       <r>  -13.6889    1.0000 </r>
       <r>  -13.6229    1.0000 </r>
       <r>  -13.5918    1.0000 </r>
       <r>   -3.3010    1.0000 </r>
       <r>   -2.6104    1.0000 </r>
       <r>   -2.5868    1.0000 </r>
       <r>   -2.4531    1.0000 </r>
       <r>   -2.0138    1.0000 </r>
       <r>   -1.7100    1.0000 </r>
       <r>   -1.6266    1.0000 </r>
       <r>   -1.6187    1.0000 </r>
       <r>   -1.3786    1.0000 </r>
       <r>   -1.2558    1.0000 </r>
       <r>   -1.2518    1.0000 </r>
       <r>   -0.5576    1.0000 </r>
       <r>   -0.4565    1.0000 </r>
       <r>    0.2510    1.0000 </r>
       <r>    0.5295    1.0000 </r>
       <r>    0.5901    1.0000 </r>
       <r>    0.6254    1.0000 </r>
       <r>    0.8258    1.0000 </r>
       <r>    1.0880    1.0000 </r>
       <r>    1.3025    1.0000 </r>
       <r>    1.4290    1.0000 </r>
       <r>    1.5911    1.0000 </r>
       <r>    1.7227    1.0000 </r>
       <r>    2.0141    1.0000 </r>
       <r>    2.2630    1.0000 </r>
       <r>    2.3509    1.0000 </r>
       <r>    2.3645    1.0000 </r>
       <r>    2.4000    1.0000 </r>
       <r>    2.6770    1.0000 </r>
       <r>    2.6788    1.0000 </r>
       <r>    2.7719    1.0000 </r>
       <r>    2.9193    1.0000 </r>
       <r>    3.0647    1.0000 </r>
       <r>    3.4214    1.0000 </r>
       <r>    3.5628    1.0000 </r>
       <r>    3.8837    1.0000 </r>
       <r>    4.9451    0.0000 </r>
       <r>    5.4582    0.0000 </r>
       <r>    6.3733    0.0000 </r>
       <r>    6.3754    0.0000 </r>
       <r>    6.5060    0.0000 </r>
       <r>    6.6133    0.0000 </r>
       <r>    6.6528    0.0000 </r>
       <r>    6.9789    0.0000 </r>
       <r>   11.3399    0.0000 </r>
       <r>   13.2440    0.0000 </r>
       <r>   13.8538    0.0000 </r>
       <r>   14.6606    0.0000 </r>
       <r>   15.1364    0.0000 </r>
       <r>   16.1894    0.0000 </r>
       <r>   16.2593    0.0000 </r>
       <r>   17.5793    0.0000 </r>
      </set>
      <set comment="kpoint 8">
       <r>  -46.5878    1.0000 </r>
       <r>  -46.5860    1.0000 </r>
       <r>  -46.5856    1.0000 </r>
       <r>  -46.5824    1.0000 </r>
       <r>  -46.5679    1.0000 </r>
       <r>  -46.5660    1.0000 </r>
       <r>  -46.5244    1.0000 </r>
       <r>  -46.5227    1.0000 </r>
       <r>  -46.4993    1.0000 </r>
       <r>  -46.4949    1.0000 </r>
       <r>  -46.4920    1.0000 </r>
       <r>  -46.4883    1.0000 </r>
       <r>  -15.5201    1.0000 </r>
       <r>  -14.9936    1.0000 </r>
       <r>  -14.6704    1.0000 </r>
       <r>  -14.0027    1.0000 </r>
       <r>  -13.7522    1.0000 </r>
       <r>  -13.6970    1.0000 </r>
       <r>  -13.6445    1.0000 </r>
       <r>  -13.6102    1.0000 </r>
       <r>   -3.1678    1.0000 </r>
       <r>   -2.5193    1.0000 </r>
       <r>   -2.4842    1.0000 </r>
       <r>   -2.3502    1.0000 </r>
       <r>   -2.0045    1.0000 </r>
       <r>   -1.8358    1.0000 </r>
       <r>   -1.7638    1.0000 </r>
       <r>   -1.6843    1.0000 </r>
       <r>   -1.3457    1.0000 </r>
       <r>   -1.2077    1.0000 </r>
       <r>   -1.0746    1.0000 </r>
       <r>   -0.4355    1.0000 </r>
       <r>   -0.3482    1.0000 </r>
       <r>   -0.0738    1.0000 </r>
       <r>    0.1707    1.0000 </r>
       <r>    0.5128    1.0000 </r>
       <r>    0.7012    1.0000 </r>
       <r>    0.7195    1.0000 </r>
       <r>    1.0186    1.0000 </r>
       <r>    1.0669    1.0000 </r>
       <r>    1.3366    1.0000 </r>
       <r>    1.4026    1.0000 </r>
       <r>    1.5461    1.0000 </r>
       <r>    2.1526    1.0000 </r>
       <r>    2.2248    1.0000 </r>
       <r>    2.2527    1.0000 </r>
       <r>    2.3675    1.0000 </r>
       <r>    2.4387    1.0000 </r>
       <r>    2.7304    1.0000 </r>
       <r>    2.7963    1.0000 </r>
       <r>    2.8777    1.0000 </r>
       <r>    2.9899    1.0000 </r>
       <r>    3.2894    1.0000 </r>
       <r>    3.3749    1.0000 </r>
       <r>    3.5923    1.0000 </r>
       <r>    3.8788    1.0000 </r>
       <r>    5.0125    0.0000 </r>
       <r>    5.4633    0.0000 </r>
       <r>    6.1341    0.0000 </r>
       <r>    6.2564    0.0000 </r>
       <r>    6.3377    0.0000 </r>
       <r>    6.4435    0.0000 </r>
       <r>    6.5181    0.0000 </r>
       <r>    6.9540    0.0000 </r>
       <r>   11.6669    0.0000 </r>
       <r>   13.5147    0.0000 </r>
       <r>   14.0815    0.0000 </r>
       <r>   15.0346    0.0000 </r>
       <r>   15.5065    0.0000 </r>
       <r>   16.4264    0.0000 </r>
       <r>   16.5387    0.0000 </r>
       <r>   17.8172    0.0000 </r>
      </set>
      <set comment="kpoint 9">
       <r>  -46.6129    1.0000 </r>
       <r>  -46.6119    1.0000 </r>
       <r>  -46.6059    1.0000 </r>
       <r>  -46.6020    1.0000 </r>
       <r>  -46.5703    1.0000 </r>
       <r>  -46.5619    1.0000 </r>
       <r>  -46.5224    1.0000 </r>
       <r>  -46.5202    1.0000 </r>
       <r>  -46.4966    1.0000 </r>
       <r>  -46.4945    1.0000 </r>
       <r>  -46.4906    1.0000 </r>
       <r>  -46.4871    1.0000 </r>
       <r>  -15.2615    1.0000 </r>
       <r>  -14.7997    1.0000 </r>
       <r>  -14.4848    1.0000 </r>
       <r>  -13.9211    1.0000 </r>
       <r>  -13.7745    1.0000 </r>
       <r>  -13.7188    1.0000 </r>
       <r>  -13.7062    1.0000 </r>
       <r>  -13.6598    1.0000 </r>
       <r>   -2.8036    1.0000 </r>
       <r>   -2.2946    1.0000 </r>
       <r>   -2.2296    1.0000 </r>
       <r>   -2.1121    1.0000 </r>
       <r>   -2.0809    1.0000 </r>
       <r>   -2.0292    1.0000 </r>
       <r>   -1.8003    1.0000 </r>
       <r>   -1.7028    1.0000 </r>
       <r>   -1.3496    1.0000 </r>
       <r>   -1.0597    1.0000 </r>
       <r>   -0.7964    1.0000 </r>
       <r>   -0.7773    1.0000 </r>
       <r>   -0.6565    1.0000 </r>
       <r>   -0.2568    1.0000 </r>
       <r>    0.0652    1.0000 </r>
       <r>    0.1526    1.0000 </r>
       <r>    0.3721    1.0000 </r>
       <r>    0.6134    1.0000 </r>
       <r>    0.6858    1.0000 </r>
       <r>    0.9549    1.0000 </r>
       <r>    1.1899    1.0000 </r>
       <r>    1.2383    1.0000 </r>
       <r>    1.3118    1.0000 </r>
       <r>    2.0264    1.0000 </r>
       <r>    2.0458    1.0000 </r>
       <r>    2.3898    1.0000 </r>
       <r>    2.5285    1.0000 </r>
       <r>    2.5322    1.0000 </r>
       <r>    2.7489    1.0000 </r>
       <r>    2.8311    1.0000 </r>
       <r>    2.9800    1.0000 </r>
       <r>    3.1343    1.0000 </r>
       <r>    3.2143    1.0000 </r>
       <r>    3.5052    1.0000 </r>
       <r>    3.6692    1.0000 </r>
       <r>    3.8242    1.0000 </r>
       <r>    5.1606    0.0000 </r>
       <r>    5.3035    0.0000 </r>
       <r>    5.5958    0.0000 </r>
       <r>    5.9033    0.0000 </r>
       <r>    6.0291    0.0000 </r>
       <r>    6.2768    0.0000 </r>
       <r>    6.5142    0.0000 </r>
       <r>    6.8056    0.0000 </r>
       <r>   12.5071    0.0000 </r>
       <r>   14.1605    0.0000 </r>
       <r>   14.6202    0.0000 </r>
       <r>   15.9583    0.0000 </r>
       <r>   16.4220    0.0000 </r>
       <r>   16.9305    0.0000 </r>
       <r>   17.2341    0.0000 </r>
       <r>   18.0731    0.0000 </r>
      </set>
      <set comment="kpoint 10">
       <r>  -46.6434    1.0000 </r>
       <r>  -46.6432    1.0000 </r>
       <r>  -46.6382    1.0000 </r>
       <r>  -46.6343    1.0000 </r>
       <r>  -46.5594    1.0000 </r>
       <r>  -46.5522    1.0000 </r>
       <r>  -46.5220    1.0000 </r>
       <r>  -46.5197    1.0000 </r>
       <r>  -46.4942    1.0000 </r>
       <r>  -46.4920    1.0000 </r>
       <r>  -46.4890    1.0000 </r>
       <r>  -46.4860    1.0000 </r>
       <r>  -14.8889    1.0000 </r>
       <r>  -14.5380    1.0000 </r>
       <r>  -14.2402    1.0000 </r>
       <r>  -13.8638    1.0000 </r>
       <r>  -13.8066    1.0000 </r>
       <r>  -13.7899    1.0000 </r>
       <r>  -13.7522    1.0000 </r>
       <r>  -13.7171    1.0000 </r>
       <r>   -2.3590    1.0000 </r>
       <r>   -2.2501    1.0000 </r>
       <r>   -2.1316    1.0000 </r>
       <r>   -2.1297    1.0000 </r>
       <r>   -1.9603    1.0000 </r>
       <r>   -1.9396    1.0000 </r>
       <r>   -1.9292    1.0000 </r>
       <r>   -1.7476    1.0000 </r>
       <r>   -1.3169    1.0000 </r>
       <r>   -1.1092    1.0000 </r>
       <r>   -1.0130    1.0000 </r>
       <r>   -0.8656    1.0000 </r>
       <r>   -0.5296    1.0000 </r>
       <r>   -0.4026    1.0000 </r>
       <r>   -0.1279    1.0000 </r>
       <r>    0.1698    1.0000 </r>
       <r>    0.3233    1.0000 </r>
       <r>    0.3490    1.0000 </r>
       <r>    0.4651    1.0000 </r>
       <r>    0.7863    1.0000 </r>
       <r>    1.0147    1.0000 </r>
       <r>    1.2964    1.0000 </r>
       <r>    1.3881    1.0000 </r>
       <r>    1.6627    1.0000 </r>
       <r>    1.9246    1.0000 </r>
       <r>    2.3190    1.0000 </r>
       <r>    2.3395    1.0000 </r>
       <r>    2.5304    1.0000 </r>
       <r>    2.6925    1.0000 </r>
       <r>    2.7554    1.0000 </r>
       <r>    2.8248    1.0000 </r>
       <r>    2.9798    1.0000 </r>
       <r>    3.3282    1.0000 </r>
       <r>    3.5574    1.0000 </r>
       <r>    3.6585    1.0000 </r>
       <r>    3.7576    1.0000 </r>
       <r>    5.0477    0.0000 </r>
       <r>    5.2002    0.0000 </r>
       <r>    5.3020    0.0000 </r>
       <r>    5.5705    0.0000 </r>
       <r>    5.8826    0.0000 </r>
       <r>    6.4839    0.0000 </r>
       <r>    6.5100    0.0000 </r>
       <r>    6.6745    0.0000 </r>
       <r>   13.5949    0.0000 </r>
       <r>   14.9034    0.0000 </r>
       <r>   15.2168    0.0000 </r>
       <r>   16.9472    0.0000 </r>
       <r>   17.3818    0.0000 </r>
       <r>   17.4141    0.0000 </r>
       <r>   17.9120    0.0000 </r>
       <r>   17.9645    0.0000 </r>
      </set>
      <set comment="kpoint 11">
       <r>  -46.6679    1.0000 </r>
       <r>  -46.6667    1.0000 </r>
       <r>  -46.6650    1.0000 </r>
       <r>  -46.6619    1.0000 </r>
       <r>  -46.5461    1.0000 </r>
       <r>  -46.5413    1.0000 </r>
       <r>  -46.5249    1.0000 </r>
       <r>  -46.5242    1.0000 </r>
       <r>  -46.4911    1.0000 </r>
       <r>  -46.4890    1.0000 </r>
       <r>  -46.4877    1.0000 </r>
       <r>  -46.4860    1.0000 </r>
       <r>  -14.4848    1.0000 </r>
       <r>  -14.2816    1.0000 </r>
       <r>  -14.0262    1.0000 </r>
       <r>  -13.9327    1.0000 </r>
       <r>  -13.9044    1.0000 </r>
       <r>  -13.8059    1.0000 </r>
       <r>  -13.7840    1.0000 </r>
       <r>  -13.7573    1.0000 </r>
       <r>   -2.6276    1.0000 </r>
       <r>   -2.5152    1.0000 </r>
       <r>   -2.1455    1.0000 </r>
       <r>   -2.1246    1.0000 </r>
       <r>   -2.0442    1.0000 </r>
       <r>   -1.8585    1.0000 </r>
       <r>   -1.6747    1.0000 </r>
       <r>   -1.5850    1.0000 </r>
       <r>   -1.2650    1.0000 </r>
       <r>   -1.2173    1.0000 </r>
       <r>   -0.8659    1.0000 </r>
       <r>   -0.6635    1.0000 </r>
       <r>   -0.5065    1.0000 </r>
       <r>   -0.1598    1.0000 </r>
       <r>   -0.1522    1.0000 </r>
       <r>    0.1297    1.0000 </r>
       <r>    0.2521    1.0000 </r>
       <r>    0.4174    1.0000 </r>
       <r>    0.6684    1.0000 </r>
       <r>    0.7497    1.0000 </r>
       <r>    0.7955    1.0000 </r>
       <r>    1.2911    1.0000 </r>
       <r>    1.3363    1.0000 </r>
       <r>    1.4591    1.0000 </r>
       <r>    1.8704    1.0000 </r>
       <r>    2.0766    1.0000 </r>
       <r>    2.0802    1.0000 </r>
       <r>    2.2295    1.0000 </r>
       <r>    2.3594    1.0000 </r>
       <r>    2.4318    1.0000 </r>
       <r>    2.6209    1.0000 </r>
       <r>    2.7109    1.0000 </r>
       <r>    3.4909    1.0000 </r>
       <r>    3.5699    1.0000 </r>
       <r>    3.6185    1.0000 </r>
       <r>    3.7463    1.0000 </r>
       <r>    4.9980    0.0000 </r>
       <r>    5.0516    0.0000 </r>
       <r>    5.3205    0.0000 </r>
       <r>    5.4215    0.0000 </r>
       <r>    6.0442    0.0000 </r>
       <r>    6.3458    0.0000 </r>
       <r>    6.7212    0.0000 </r>
       <r>    6.7493    0.0000 </r>
       <r>   14.7162    0.0000 </r>
       <r>   15.5698    0.0000 </r>
       <r>   15.6777    0.0000 </r>
       <r>   16.8893    0.0000 </r>
       <r>   17.2543    0.0000 </r>
       <r>   17.3308    0.0000 </r>
       <r>   18.1506    0.0000 </r>
       <r>   18.2530    0.0000 </r>
      </set>
      <set comment="kpoint 12">
       <r>  -46.6763    1.0000 </r>
       <r>  -46.6763    1.0000 </r>
       <r>  -46.6740    1.0000 </r>
       <r>  -46.6739    1.0000 </r>
       <r>  -46.5337    1.0000 </r>
       <r>  -46.5336    1.0000 </r>
       <r>  -46.5316    1.0000 </r>
       <r>  -46.5316    1.0000 </r>
       <r>  -46.4880    1.0000 </r>
       <r>  -46.4879    1.0000 </r>
       <r>  -46.4875    1.0000 </r>
       <r>  -46.4874    1.0000 </r>
       <r>  -14.1445    1.0000 </r>
       <r>  -14.1445    1.0000 </r>
       <r>  -14.0829    1.0000 </r>
       <r>  -14.0828    1.0000 </r>
       <r>  -13.8471    1.0000 </r>
       <r>  -13.8471    1.0000 </r>
       <r>  -13.7920    1.0000 </r>
       <r>  -13.7920    1.0000 </r>
       <r>   -2.7640    1.0000 </r>
       <r>   -2.7640    1.0000 </r>
       <r>   -2.0962    1.0000 </r>
       <r>   -2.0962    1.0000 </r>
       <r>   -2.0168    1.0000 </r>
       <r>   -2.0167    1.0000 </r>
       <r>   -1.4909    1.0000 </r>
       <r>   -1.4909    1.0000 </r>
       <r>   -1.2081    1.0000 </r>
       <r>   -1.2080    1.0000 </r>
       <r>   -0.7449    1.0000 </r>
       <r>   -0.7448    1.0000 </r>
       <r>   -0.1710    1.0000 </r>
       <r>   -0.1710    1.0000 </r>
       <r>   -0.0234    1.0000 </r>
       <r>   -0.0233    1.0000 </r>
       <r>    0.2779    1.0000 </r>
       <r>    0.2780    1.0000 </r>
       <r>    0.7829    1.0000 </r>
       <r>    0.7829    1.0000 </r>
       <r>    1.1130    1.0000 </r>
       <r>    1.1130    1.0000 </r>
       <r>    1.3949    1.0000 </r>
       <r>    1.3950    1.0000 </r>
       <r>    1.9153    1.0000 </r>
       <r>    1.9154    1.0000 </r>
       <r>    2.0228    1.0000 </r>
       <r>    2.0229    1.0000 </r>
       <r>    2.0887    1.0000 </r>
       <r>    2.0888    1.0000 </r>
       <r>    2.5295    1.0000 </r>
       <r>    2.5295    1.0000 </r>
       <r>    3.5662    1.0000 </r>
       <r>    3.5663    1.0000 </r>
       <r>    3.6841    1.0000 </r>
       <r>    3.6842    1.0000 </r>
       <r>    5.0136    0.0000 </r>
       <r>    5.0137    0.0000 </r>
       <r>    5.3623    0.0000 </r>
       <r>    5.3623    0.0000 </r>
       <r>    6.2185    0.0000 </r>
       <r>    6.2185    0.0000 </r>
       <r>    6.8026    0.0000 </r>
       <r>    6.8026    0.0000 </r>
       <r>   15.6129    0.0000 </r>
       <r>   15.6130    0.0000 </r>
       <r>   16.1923    0.0000 </r>
       <r>   16.1924    0.0000 </r>
       <r>   16.9485    0.0000 </r>
       <r>   16.9486    0.0000 </r>
       <r>   18.5122    0.0000 </r>
       <r>   18.5122    0.0000 </r>
      </set>
      <set comment="kpoint 13">
       <r>  -46.6679    1.0000 </r>
       <r>  -46.6667    1.0000 </r>
       <r>  -46.6650    1.0000 </r>
       <r>  -46.6619    1.0000 </r>
       <r>  -46.5461    1.0000 </r>
       <r>  -46.5413    1.0000 </r>
       <r>  -46.5249    1.0000 </r>
       <r>  -46.5242    1.0000 </r>
       <r>  -46.4911    1.0000 </r>
       <r>  -46.4890    1.0000 </r>
       <r>  -46.4877    1.0000 </r>
       <r>  -46.4860    1.0000 </r>
       <r>  -14.4848    1.0000 </r>
       <r>  -14.2816    1.0000 </r>
       <r>  -14.0262    1.0000 </r>
       <r>  -13.9327    1.0000 </r>
       <r>  -13.9044    1.0000 </r>
       <r>  -13.8060    1.0000 </r>
       <r>  -13.7840    1.0000 </r>
       <r>  -13.7573    1.0000 </r>
       <r>   -2.6276    1.0000 </r>
       <r>   -2.5152    1.0000 </r>
       <r>   -2.1455    1.0000 </r>
       <r>   -2.1246    1.0000 </r>
       <r>   -2.0442    1.0000 </r>
       <r>   -1.8585    1.0000 </r>
       <r>   -1.6747    1.0000 </r>
       <r>   -1.5850    1.0000 </r>
       <r>   -1.2650    1.0000 </r>
       <r>   -1.2173    1.0000 </r>
       <r>   -0.8659    1.0000 </r>
       <r>   -0.6635    1.0000 </r>
       <r>   -0.5065    1.0000 </r>
       <r>   -0.1598    1.0000 </r>
       <r>   -0.1522    1.0000 </r>
       <r>    0.1297    1.0000 </r>
       <r>    0.2521    1.0000 </r>
       <r>    0.4174    1.0000 </r>
       <r>    0.6684    1.0000 </r>
       <r>    0.7497    1.0000 </r>
       <r>    0.7954    1.0000 </r>
       <r>    1.2912    1.0000 </r>
       <r>    1.3364    1.0000 </r>
       <r>    1.4591    1.0000 </r>
       <r>    1.8704    1.0000 </r>
       <r>    2.0766    1.0000 </r>
       <r>    2.0802    1.0000 </r>
       <r>    2.2295    1.0000 </r>
       <r>    2.3594    1.0000 </r>
       <r>    2.4318    1.0000 </r>
       <r>    2.6209    1.0000 </r>
       <r>    2.7109    1.0000 </r>
       <r>    3.4909    1.0000 </r>
       <r>    3.5699    1.0000 </r>
       <r>    3.6185    1.0000 </r>
       <r>    3.7463    1.0000 </r>
       <r>    4.9980    0.0000 </r>
       <r>    5.0516    0.0000 </r>
       <r>    5.3205    0.0000 </r>
       <r>    5.4215    0.0000 </r>
       <r>    6.0442    0.0000 </r>
       <r>    6.3458    0.0000 </r>
       <r>    6.7212    0.0000 </r>
       <r>    6.7493    0.0000 </r>
       <r>   14.7162    0.0000 </r>
       <r>   15.5698    0.0000 </r>
       <r>   15.6777    0.0000 </r>
       <r>   16.8893    0.0000 </r>
       <r>   17.2543    0.0000 </r>
       <r>   17.3308    0.0000 </r>
       <r>   18.1506    0.0000 </r>
       <r>   18.2517    0.0000 </r>
      </set>
      <set comment="kpoint 14">
       <r>  -46.6434    1.0000 </r>
       <r>  -46.6432    1.0000 </r>
       <r>  -46.6382    1.0000 </r>
       <r>  -46.6343    1.0000 </r>
       <r>  -46.5594    1.0000 </r>
       <r>  -46.5522    1.0000 </r>
       <r>  -46.5220    1.0000 </r>
       <r>  -46.5197    1.0000 </r>
       <r>  -46.4942    1.0000 </r>
       <r>  -46.4920    1.0000 </r>
       <r>  -46.4890    1.0000 </r>
       <r>  -46.4860    1.0000 </r>
       <r>  -14.8889    1.0000 </r>
       <r>  -14.5380    1.0000 </r>
       <r>  -14.2402    1.0000 </r>
       <r>  -13.8637    1.0000 </r>
       <r>  -13.8066    1.0000 </r>
       <r>  -13.7899    1.0000 </r>
       <r>  -13.7522    1.0000 </r>
       <r>  -13.7171    1.0000 </r>
       <r>   -2.3590    1.0000 </r>
       <r>   -2.2501    1.0000 </r>
       <r>   -2.1316    1.0000 </r>
       <r>   -2.1297    1.0000 </r>
       <r>   -1.9604    1.0000 </r>
       <r>   -1.9396    1.0000 </r>
       <r>   -1.9292    1.0000 </r>
       <r>   -1.7476    1.0000 </r>
       <r>   -1.3169    1.0000 </r>
       <r>   -1.1093    1.0000 </r>
       <r>   -1.0130    1.0000 </r>
       <r>   -0.8656    1.0000 </r>
       <r>   -0.5296    1.0000 </r>
       <r>   -0.4026    1.0000 </r>
       <r>   -0.1279    1.0000 </r>
       <r>    0.1698    1.0000 </r>
       <r>    0.3233    1.0000 </r>
       <r>    0.3490    1.0000 </r>
       <r>    0.4651    1.0000 </r>
       <r>    0.7863    1.0000 </r>
       <r>    1.0147    1.0000 </r>
       <r>    1.2965    1.0000 </r>
       <r>    1.3882    1.0000 </r>
       <r>    1.6627    1.0000 </r>
       <r>    1.9245    1.0000 </r>
       <r>    2.3190    1.0000 </r>
       <r>    2.3395    1.0000 </r>
       <r>    2.5304    1.0000 </r>
       <r>    2.6925    1.0000 </r>
       <r>    2.7554    1.0000 </r>
       <r>    2.8248    1.0000 </r>
       <r>    2.9798    1.0000 </r>
       <r>    3.3282    1.0000 </r>
       <r>    3.5574    1.0000 </r>
       <r>    3.6585    1.0000 </r>
       <r>    3.7576    1.0000 </r>
       <r>    5.0477    0.0000 </r>
       <r>    5.2002    0.0000 </r>
       <r>    5.3020    0.0000 </r>
       <r>    5.5705    0.0000 </r>
       <r>    5.8826    0.0000 </r>
       <r>    6.4839    0.0000 </r>
       <r>    6.5100    0.0000 </r>
       <r>    6.6744    0.0000 </r>
       <r>   13.5949    0.0000 </r>
       <r>   14.9034    0.0000 </r>
       <r>   15.2168    0.0000 </r>
       <r>   16.9472    0.0000 </r>
       <r>   17.3818    0.0000 </r>
       <r>   17.4141    0.0000 </r>
       <r>   17.9120    0.0000 </r>
       <r>   17.9645    0.0000 </r>
      </set>
      <set comment="kpoint 15">
       <r>  -46.6129    1.0000 </r>
       <r>  -46.6119    1.0000 </r>
       <r>  -46.6059    1.0000 </r>
       <r>  -46.6020    1.0000 </r>
       <r>  -46.5703    1.0000 </r>
       <r>  -46.5619    1.0000 </r>
       <r>  -46.5224    1.0000 </r>
       <r>  -46.5202    1.0000 </r>
       <r>  -46.4966    1.0000 </r>
       <r>  -46.4945    1.0000 </r>
       <r>  -46.4906    1.0000 </r>
       <r>  -46.4871    1.0000 </r>
       <r>  -15.2615    1.0000 </r>
       <r>  -14.7997    1.0000 </r>
       <r>  -14.4848    1.0000 </r>
       <r>  -13.9211    1.0000 </r>
       <r>  -13.7745    1.0000 </r>
       <r>  -13.7188    1.0000 </r>
       <r>  -13.7062    1.0000 </r>
       <r>  -13.6598    1.0000 </r>
       <r>   -2.8036    1.0000 </r>
       <r>   -2.2946    1.0000 </r>
       <r>   -2.2296    1.0000 </r>
       <r>   -2.1121    1.0000 </r>
       <r>   -2.0809    1.0000 </r>
       <r>   -2.0293    1.0000 </r>
       <r>   -1.8003    1.0000 </r>
       <r>   -1.7028    1.0000 </r>
       <r>   -1.3496    1.0000 </r>
       <r>   -1.0597    1.0000 </r>
       <r>   -0.7964    1.0000 </r>
       <r>   -0.7773    1.0000 </r>
       <r>   -0.6565    1.0000 </r>
       <r>   -0.2568    1.0000 </r>
       <r>    0.0652    1.0000 </r>
       <r>    0.1526    1.0000 </r>
       <r>    0.3721    1.0000 </r>
       <r>    0.6134    1.0000 </r>
       <r>    0.6858    1.0000 </r>
       <r>    0.9549    1.0000 </r>
       <r>    1.1899    1.0000 </r>
       <r>    1.2384    1.0000 </r>
       <r>    1.3118    1.0000 </r>
       <r>    2.0264    1.0000 </r>
       <r>    2.0458    1.0000 </r>
       <r>    2.3898    1.0000 </r>
       <r>    2.5285    1.0000 </r>
       <r>    2.5322    1.0000 </r>
       <r>    2.7489    1.0000 </r>
       <r>    2.8311    1.0000 </r>
       <r>    2.9800    1.0000 </r>
       <r>    3.1343    1.0000 </r>
       <r>    3.2143    1.0000 </r>
       <r>    3.5052    1.0000 </r>
       <r>    3.6692    1.0000 </r>
       <r>    3.8242    1.0000 </r>
       <r>    5.1606    0.0000 </r>
       <r>    5.3035    0.0000 </r>
       <r>    5.5958    0.0000 </r>
       <r>    5.9033    0.0000 </r>
       <r>    6.0291    0.0000 </r>
       <r>    6.2768    0.0000 </r>
       <r>    6.5142    0.0000 </r>
       <r>    6.8056    0.0000 </r>
       <r>   12.5071    0.0000 </r>
       <r>   14.1605    0.0000 </r>
       <r>   14.6202    0.0000 </r>
       <r>   15.9583    0.0000 </r>
       <r>   16.4220    0.0000 </r>
       <r>   16.9305    0.0000 </r>
       <r>   17.2341    0.0000 </r>
       <r>   18.0730    0.0000 </r>
      </set>
      <set comment="kpoint 16">
       <r>  -46.5878    1.0000 </r>
       <r>  -46.5860    1.0000 </r>
       <r>  -46.5856    1.0000 </r>
       <r>  -46.5824    1.0000 </r>
       <r>  -46.5679    1.0000 </r>
       <r>  -46.5660    1.0000 </r>
       <r>  -46.5244    1.0000 </r>
       <r>  -46.5227    1.0000 </r>
       <r>  -46.4993    1.0000 </r>
       <r>  -46.4949    1.0000 </r>
       <r>  -46.4920    1.0000 </r>
       <r>  -46.4883    1.0000 </r>
       <r>  -15.5201    1.0000 </r>
       <r>  -14.9936    1.0000 </r>
       <r>  -14.6704    1.0000 </r>
       <r>  -14.0027    1.0000 </r>
       <r>  -13.7522    1.0000 </r>
       <r>  -13.6970    1.0000 </r>
       <r>  -13.6445    1.0000 </r>
       <r>  -13.6102    1.0000 </r>
       <r>   -3.1678    1.0000 </r>
       <r>   -2.5193    1.0000 </r>
       <r>   -2.4842    1.0000 </r>
       <r>   -2.3502    1.0000 </r>
       <r>   -2.0045    1.0000 </r>
       <r>   -1.8358    1.0000 </r>
       <r>   -1.7638    1.0000 </r>
       <r>   -1.6843    1.0000 </r>
       <r>   -1.3457    1.0000 </r>
       <r>   -1.2077    1.0000 </r>
       <r>   -1.0746    1.0000 </r>
       <r>   -0.4355    1.0000 </r>
       <r>   -0.3481    1.0000 </r>
       <r>   -0.0738    1.0000 </r>
       <r>    0.1707    1.0000 </r>
       <r>    0.5128    1.0000 </r>
       <r>    0.7012    1.0000 </r>
       <r>    0.7195    1.0000 </r>
       <r>    1.0186    1.0000 </r>
       <r>    1.0669    1.0000 </r>
       <r>    1.3366    1.0000 </r>
       <r>    1.4026    1.0000 </r>
       <r>    1.5462    1.0000 </r>
       <r>    2.1526    1.0000 </r>
       <r>    2.2248    1.0000 </r>
       <r>    2.2527    1.0000 </r>
       <r>    2.3675    1.0000 </r>
       <r>    2.4387    1.0000 </r>
       <r>    2.7304    1.0000 </r>
       <r>    2.7963    1.0000 </r>
       <r>    2.8777    1.0000 </r>
       <r>    2.9900    1.0000 </r>
       <r>    3.2894    1.0000 </r>
       <r>    3.3749    1.0000 </r>
       <r>    3.5923    1.0000 </r>
       <r>    3.8788    1.0000 </r>
       <r>    5.0125    0.0000 </r>
       <r>    5.4633    0.0000 </r>
       <r>    6.1341    0.0000 </r>
       <r>    6.2564    0.0000 </r>
       <r>    6.3377    0.0000 </r>
       <r>    6.4435    0.0000 </r>
       <r>    6.5180    0.0000 </r>
       <r>    6.9540    0.0000 </r>
       <r>   11.6669    0.0000 </r>
       <r>   13.5147    0.0000 </r>
       <r>   14.0815    0.0000 </r>
       <r>   15.0346    0.0000 </r>
       <r>   15.5065    0.0000 </r>
       <r>   16.4264    0.0000 </r>
       <r>   16.5387    0.0000 </r>
       <r>   17.8172    0.0000 </r>
      </set>
      <set comment="kpoint 17">
       <r>  -46.5856    1.0000 </r>
       <r>  -46.5797    1.0000 </r>
[...]
       <r>     4.1630     0.0000    56.0000 </r>
       <r>     4.4036     0.0000    56.0000 </r>
       <r>     4.6441     0.0000    56.0000 </r>
       <r>     4.8846     0.0000    56.0000 </r>
       <r>     5.1251     1.9594    56.7106 </r>
       <r>     5.3657     1.9206    57.9227 </r>
       <r>     5.6062     1.0983    59.0142 </r>
       <r>     5.8467     0.3610    59.3654 </r>
       <r>     6.0873     1.2978    59.9050 </r>
       <r>     6.3278     1.2271    60.8452 </r>
       <r>     6.5683     1.6613    62.2532 </r>
       <r>     6.8089     1.6145    63.8205 </r>
       <r>     7.0494     0.1485    63.9964 </r>
       <r>     7.2899     0.0000    64.0000 </r>
       <r>     7.5305     0.0000    64.0000 </r>
       <r>     7.7710     0.0000    64.0000 </r>
       <r>     8.0115     0.0000    64.0000 </r>
       <r>     8.2520     0.0000    64.0000 </r>
       <r>     8.4926     0.0000    64.0000 </r>
       <r>     8.7331     0.0000    64.0000 </r>
       <r>     8.9736     0.0000    64.0000 </r>
       <r>     9.2142     0.0000    64.0000 </r>
       <r>     9.4547     0.0000    64.0000 </r>
       <r>     9.6952     0.0000    64.0000 </r>
       <r>     9.9358     0.0000    64.0000 </r>
       <r>    10.1763     0.0000    64.0000 </r>
       <r>    10.4168     0.0000    64.0000 </r>
       <r>    10.6574     0.0000    64.0000 </r>
       <r>    10.8979     0.0000    64.0000 </r>
       <r>    11.1384     0.0148    64.0036 </r>
       <r>    11.3789     0.0297    64.0179 </r>
       <r>    11.6195     0.0536    64.0522 </r>
       <r>    11.8600     0.1438    64.1024 </r>
       <r>    12.1005     0.0893    64.1251 </r>
       <r>    12.3411     0.1816    64.1972 </r>
       <r>    12.5816     0.0891    64.2679 </r>
       <r>    12.8221     0.0529    64.3377 </r>
       <r>    13.0627     0.2625    64.4524 </r>
       <r>    13.3032     0.0904    64.5432 </r>
       <r>    13.5437     0.4449    64.6856 </r>
       <r>    13.7843     0.0106    64.8133 </r>
       <r>    14.0248     0.2981    65.0038 </r>
       <r>    14.2653     0.2632    65.2097 </r>
       <r>    14.5058     0.5816    65.4006 </r>
       <r>    14.7464     0.6238    65.6965 </r>
       <r>    14.9869     0.6846    66.0932 </r>
       <r>    15.2274     0.7386    66.5455 </r>
       <r>    15.4680     0.5653    66.9753 </r>
       <r>    15.7085     0.6876    67.4618 </r>
       <r>    15.9490     0.3888    67.9114 </r>
       <r>    16.1896     0.4872    68.3493 </r>
       <r>    16.4301     0.6517    68.7282 </r>
       <r>    16.6706     0.4196    69.0188 </r>
       <r>    16.9112     0.7127    69.4821 </r>
       <r>    17.1517     0.4456    70.0250 </r>
       <r>    17.3922     0.4988    70.4950 </r>
       <r>    17.6327     0.6305    70.9374 </r>
       <r>    17.8733     0.3888    71.2792 </r>
       <r>    18.1138     0.4604    71.6608 </r>
       <r>    18.3543     0.2610    71.9628 </r>
       <r>    18.5949     0.0000    72.0000 </r>
       <r>    18.8354     0.0000    72.0000 </r>
       <r>    19.0759     0.0000    72.0000 </r>
       <r>    19.3165     0.0000    72.0000 </r>
       <r>    19.5570     0.0000    72.0000 </r>
       <r>    19.7975     0.0000    72.0000 </r>
       <r>    20.0381     0.0000    72.0000 </r>
       <r>    20.2786     0.0000    72.0000 </r>
       <r>    20.5191     0.0000    72.0000 </r>
       <r>    20.7596     0.0000    72.0000 </r>
       <r>    21.0002     0.0000    72.0000 </r>
       <r>    21.2407     0.0000    72.0000 </r>
       <r>    21.4812     0.0000    72.0000 </r>
       <r>    21.7218     0.0000    72.0000 </r>
       <r>    21.9623     0.0000    72.0000 </r>
       <r>    22.2028     0.0000    72.0000 </r>
      </set>
      <set comment="spin 2">
       <r>   -49.9564     0.0000     0.0000 </r>
       <r>   -49.7159     0.0000     0.0000 </r>
       <r>   -49.4753     0.0000     0.0000 </r>
       <r>   -49.2348     0.0000     0.0000 </r>
       <r>   -48.9943     0.0000     0.0000 </r>
       <r>   -48.7537     0.0000     0.0000 </r>
       <r>   -48.5132     0.0000     0.0000 </r>
       <r>   -48.2727     0.0000     0.0000 </r>
       <r>   -48.0322     0.0000     0.0000 </r>
       <r>   -47.7916     0.0000     0.0000 </r>
       <r>   -47.5511     0.0000     0.0000 </r>
       <r>   -47.3106     0.0000     0.0000 </r>
       <r>   -47.0700     0.0000     0.0000 </r>
       <r>   -46.8295     0.0000     0.0000 </r>
       <r>   -46.5890     0.0000     0.0000 </r>
       <r>   -46.3484     0.0000     0.0000 </r>
       <r>   -46.1079     0.0000     0.0000 </r>
       <r>   -45.8674     0.0000     0.0000 </r>
       <r>   -45.6268     0.0000     0.0000 </r>
       <r>   -45.3863     0.0000     0.0000 </r>
       <r>   -45.1458     0.0000     0.0000 </r>
       <r>   -44.9053     0.0000     0.0000 </r>
       <r>   -44.6647     0.0000     0.0000 </r>
       <r>   -44.4242     0.0000     0.0000 </r>
       <r>   -44.1837     0.0000     0.0000 </r>
       <r>   -43.9431     0.0000     0.0000 </r>
       <r>   -43.7026     0.0000     0.0000 </r>
       <r>   -43.4621    14.2194     7.0809 </r>
       <r>   -43.2215     0.0000    12.0000 </r>
       <r>   -42.9810     0.0000    12.0000 </r>
       <r>   -42.7405     0.0000    12.0000 </r>
       <r>   -42.4999     0.0000    12.0000 </r>
       <r>   -42.2594     0.0000    12.0000 </r>
       <r>   -42.0189     0.0000    12.0000 </r>
       <r>   -41.7784     0.0000    12.0000 </r>
       <r>   -41.5378     0.0000    12.0000 </r>
       <r>   -41.2973     0.0000    12.0000 </r>
       <r>   -41.0568     0.0000    12.0000 </r>
       <r>   -40.8162     0.0000    12.0000 </r>
       <r>   -40.5757     0.0000    12.0000 </r>
       <r>   -40.3352     0.0000    12.0000 </r>
       <r>   -40.0946     0.0000    12.0000 </r>
       <r>   -39.8541     0.0000    12.0000 </r>
       <r>   -39.6136     0.0000    12.0000 </r>
       <r>   -39.3730     0.0000    12.0000 </r>
       <r>   -39.1325     0.0000    12.0000 </r>
       <r>   -38.8920     0.0000    12.0000 </r>
       <r>   -38.6515     0.0000    12.0000 </r>
       <r>   -38.4109     0.0000    12.0000 </r>
       <r>   -38.1704     0.0000    12.0000 </r>
       <r>   -37.9299     0.0000    12.0000 </r>
       <r>   -37.6893     0.0000    12.0000 </r>
       <r>   -37.4488     0.0000    12.0000 </r>
       <r>   -37.2083     0.0000    12.0000 </r>
       <r>   -36.9677     0.0000    12.0000 </r>
       <r>   -36.7272     0.0000    12.0000 </r>
       <r>   -36.4867     0.0000    12.0000 </r>
       <r>   -36.2461     0.0000    12.0000 </r>
       <r>   -36.0056     0.0000    12.0000 </r>
       <r>   -35.7651     0.0000    12.0000 </r>
       <r>   -35.5246     0.0000    12.0000 </r>
       <r>   -35.2840     0.0000    12.0000 </r>
       <r>   -35.0435     0.0000    12.0000 </r>
       <r>   -34.8030     0.0000    12.0000 </r>
       <r>   -34.5624     0.0000    12.0000 </r>
       <r>   -34.3219     0.0000    12.0000 </r>
       <r>   -34.0814     0.0000    12.0000 </r>
       <r>   -33.8408     0.0000    12.0000 </r>
       <r>   -33.6003     0.0000    12.0000 </r>
       <r>   -33.3598     0.0000    12.0000 </r>
       <r>   -33.1192     0.0000    12.0000 </r>
       <r>   -32.8787     0.0000    12.0000 </r>
       <r>   -32.6382     0.0000    12.0000 </r>
       <r>   -32.3977     0.0000    12.0000 </r>
       <r>   -32.1571     0.0000    12.0000 </r>
       <r>   -31.9166     0.0000    12.0000 </r>
       <r>   -31.6761     0.0000    12.0000 </r>
       <r>   -31.4355     0.0000    12.0000 </r>
       <r>   -31.1950     0.0000    12.0000 </r>
       <r>   -30.9545     0.0000    12.0000 </r>
       <r>   -30.7139     0.0000    12.0000 </r>
       <r>   -30.4734     0.0000    12.0000 </r>
       <r>   -30.2329     0.0000    12.0000 </r>
       <r>   -29.9923     0.0000    12.0000 </r>
       <r>   -29.7518     0.0000    12.0000 </r>
       <r>   -29.5113     0.0000    12.0000 </r>
       <r>   -29.2708     0.0000    12.0000 </r>
       <r>   -29.0302     0.0000    12.0000 </r>
       <r>   -28.7897     0.0000    12.0000 </r>
       <r>   -28.5492     0.0000    12.0000 </r>
       <r>   -28.3086     0.0000    12.0000 </r>
       <r>   -28.0681     0.0000    12.0000 </r>
       <r>   -27.8276     0.0000    12.0000 </r>
       <r>   -27.5870     0.0000    12.0000 </r>
       <r>   -27.3465     0.0000    12.0000 </r>
       <r>   -27.1060     0.0000    12.0000 </r>
       <r>   -26.8654     0.0000    12.0000 </r>
       <r>   -26.6249     0.0000    12.0000 </r>
       <r>   -26.3844     0.0000    12.0000 </r>
       <r>   -26.1439     0.0000    12.0000 </r>
       <r>   -25.9033     0.0000    12.0000 </r>
       <r>   -25.6628     0.0000    12.0000 </r>
       <r>   -25.4223     0.0000    12.0000 </r>
       <r>   -25.1817     0.0000    12.0000 </r>
       <r>   -24.9412     0.0000    12.0000 </r>
       <r>   -24.7007     0.0000    12.0000 </r>
       <r>   -24.4601     0.0000    12.0000 </r>
       <r>   -24.2196     0.0000    12.0000 </r>
       <r>   -23.9791     0.0000    12.0000 </r>
       <r>   -23.7385     0.0000    12.0000 </r>
       <r>   -23.4980     0.0000    12.0000 </r>
       <r>   -23.2575     0.0000    12.0000 </r>
       <r>   -23.0170     0.0000    12.0000 </r>
       <r>   -22.7764     0.0000    12.0000 </r>
       <r>   -22.5359     0.0000    12.0000 </r>
       <r>   -22.2954     0.0000    12.0000 </r>
       <r>   -22.0548     0.0000    12.0000 </r>
       <r>   -21.8143     0.0000    12.0000 </r>
       <r>   -21.5738     0.0000    12.0000 </r>
       <r>   -21.3332     0.0000    12.0000 </r>
       <r>   -21.0927     0.0000    12.0000 </r>
       <r>   -20.8522     0.0000    12.0000 </r>
       <r>   -20.6116     0.0000    12.0000 </r>
       <r>   -20.3711     0.0000    12.0000 </r>
       <r>   -20.1306     0.0000    12.0000 </r>
       <r>   -19.8901     0.0000    12.0000 </r>
       <r>   -19.6495     0.0000    12.0000 </r>
       <r>   -19.4090     0.0000    12.0000 </r>
       <r>   -19.1685     0.0000    12.0000 </r>
       <r>   -18.9279     0.0000    12.0000 </r>
       <r>   -18.6874     0.0000    12.0000 </r>
       <r>   -18.4469     0.0000    12.0000 </r>
       <r>   -18.2063     0.0000    12.0000 </r>
       <r>   -17.9658     0.0000    12.0000 </r>
       <r>   -17.7253     0.0000    12.0000 </r>
       <r>   -17.4847     0.0000    12.0000 </r>
       <r>   -17.2442     0.0000    12.0000 </r>
       <r>   -17.0037     0.0000    12.0000 </r>
       <r>   -16.7632     0.0000    12.0000 </r>
       <r>   -16.5226     0.0000    12.0000 </r>
       <r>   -16.2821     0.0000    12.0000 </r>
       <r>   -16.0416     0.0000    12.0000 </r>
       <r>   -15.8010     0.0000    12.0000 </r>
       <r>   -15.5605     0.0000    12.0000 </r>
       <r>   -15.3200     0.2343    12.0956 </r>
       <r>   -15.0794     0.6428    12.4153 </r>
       <r>   -14.8389     0.4615    12.8253 </r>
       <r>   -14.5984     0.3567    13.1501 </r>
       <r>   -14.3578     0.2579    13.4942 </r>
       <r>   -14.1173     0.7339    14.2230 </r>
       <r>   -13.8768     0.9529    15.2328 </r>
       <r>   -13.6363     2.4157    16.7739 </r>
       <r>   -13.3957     1.3047    19.9995 </r>
       <r>   -13.1552     0.0000    20.0000 </r>
       <r>   -12.9147     0.0000    20.0000 </r>
       <r>   -12.6741     0.0000    20.0000 </r>
       <r>   -12.4336     0.0000    20.0000 </r>
       <r>   -12.1931     0.0000    20.0000 </r>
       <r>   -11.9525     0.0000    20.0000 </r>
       <r>   -11.7120     0.0000    20.0000 </r>
       <r>   -11.4715     0.0000    20.0000 </r>
       <r>   -11.2309     0.0000    20.0000 </r>
       <r>   -10.9904     0.0000    20.0000 </r>
       <r>   -10.7499     0.0000    20.0000 </r>
       <r>   -10.5094     0.0000    20.0000 </r>
       <r>   -10.2688     0.0000    20.0000 </r>
       <r>   -10.0283     0.0000    20.0000 </r>
       <r>    -9.7878     0.0000    20.0000 </r>
       <r>    -9.5472     0.0000    20.0000 </r>
       <r>    -9.3067     0.0000    20.0000 </r>
       <r>    -9.0662     0.0000    20.0000 </r>
       <r>    -8.8256     0.0000    20.0000 </r>
       <r>    -8.5851     0.0000    20.0000 </r>
       <r>    -8.3446     0.0000    20.0000 </r>
       <r>    -8.1040     0.0000    20.0000 </r>
       <r>    -7.8635     0.0000    20.0000 </r>
       <r>    -7.6230     0.0000    20.0000 </r>
       <r>    -7.3825     0.0000    20.0000 </r>
       <r>    -7.1419     0.0000    20.0000 </r>
       <r>    -6.9014     0.0000    20.0000 </r>
       <r>    -6.6609     0.0000    20.0000 </r>
       <r>    -6.4203     0.0000    20.0000 </r>
       <r>    -6.1798     0.0000    20.0000 </r>
       <r>    -5.9393     0.0000    20.0000 </r>
       <r>    -5.6987     0.0000    20.0000 </r>
       <r>    -5.4582     0.0000    20.0000 </r>
       <r>    -5.2177     0.0000    20.0000 </r>
       <r>    -4.9771     0.0000    20.0000 </r>
       <r>    -4.7366     0.0000    20.0000 </r>
       <r>    -4.4961     0.0000    20.0000 </r>
       <r>    -4.2556     0.0000    20.0000 </r>
       <r>    -4.0150     0.0000    20.0000 </r>
       <r>    -3.7745     0.0000    20.0000 </r>
       <r>    -3.5340     0.0000    20.0000 </r>
       <r>    -3.2934     0.0000    20.0000 </r>
       <r>    -3.0529     0.0000    20.0000 </r>
       <r>    -2.8124     0.0000    20.0000 </r>
       <r>    -2.5718     0.0911    20.0326 </r>
       <r>    -2.3313     0.2028    20.1809 </r>
       <r>    -2.0908     0.6488    20.6382 </r>
       <r>    -1.8502     1.1619    21.5866 </r>
       <r>    -1.6097     1.1224    22.9307 </r>
       <r>    -1.3692     2.6833    24.4811 </r>
       <r>    -1.1287     2.6508    26.5340 </r>
       <r>    -0.8881     1.4530    27.8781 </r>
       <r>    -0.6476     1.3566    28.5406 </r>
       <r>    -0.4071     1.4610    29.7978 </r>
       <r>    -0.1665     1.5851    30.8634 </r>
       <r>     0.0740     1.2262    31.7878 </r>
       <r>     0.3145     0.6566    32.2293 </r>
       <r>     0.5551     1.9617    33.5897 </r>
       <r>     0.7956     1.7671    34.9786 </r>
       <r>     1.0361     2.5574    36.4223 </r>
       <r>     1.2767     1.0428    37.5294 </r>
       <r>     1.5172     1.1508    38.3304 </r>
       <r>     1.7577     1.3809    39.3679 </r>
       <r>     1.9982     1.1525    40.2665 </r>
       <r>     2.2388     1.8875    41.5576 </r>
       <r>     2.4793     2.2496    42.7804 </r>
       <r>     2.7198     0.7541    43.5314 </r>
       <r>     2.9604     0.3765    43.8834 </r>
       <r>     3.2009     0.0297    43.9893 </r>
       <r>     3.4414     0.0000    44.0000 </r>
       <r>     3.6820     0.0000    44.0000 </r>
       <r>     3.9225     0.0000    44.0000 </r>
       <r>     4.1630     0.0000    44.0000 </r>
       <r>     4.4036     0.0000    44.0000 </r>
       <r>     4.6441     0.0445    44.0107 </r>
       <r>     4.8846     2.5787    44.9095 </r>
       <r>     5.1251     3.0769    47.3008 </r>
       <r>     5.3657     3.5897    49.5920 </r>
       <r>     5.6062     2.1676    52.0892 </r>
       <r>     5.8467     1.3048    52.8853 </r>
       <r>     6.0873     1.7826    54.5788 </r>
       <r>     6.3278     1.2984    55.4766 </r>
       <r>     6.5683     0.3382    56.0921 </r>
       <r>     6.8089     1.5915    57.3935 </r>
       <r>     7.0494     1.2013    58.8604 </r>
       <r>     7.2899     0.4014    59.3394 </r>
       <r>     7.5305     1.7953    60.3318 </r>
       <r>     7.7710     2.4468    61.7421 </r>
       <r>     8.0115     2.4464    63.3563 </r>
       <r>     8.2520     0.0891    63.9036 </r>
       <r>     8.4926     0.0148    64.0000 </r>
       <r>     8.7331     0.0000    64.0000 </r>
       <r>     8.9736     0.0000    64.0000 </r>
       <r>     9.2142     0.0000    64.0000 </r>
       <r>     9.4547     0.0000    64.0000 </r>
       <r>     9.6952     0.0000    64.0000 </r>
       <r>     9.9358     0.0000    64.0000 </r>
       <r>    10.1763     0.0000    64.0000 </r>
       <r>    10.4168     0.0000    64.0000 </r>
       <r>    10.6574     0.0000    64.0000 </r>
       <r>    10.8979     0.0000    64.0000 </r>
       <r>    11.1384     0.0000    64.0000 </r>
       <r>    11.3789     0.0000    64.0000 </r>
       <r>    11.6195     0.0000    64.0036 </r>
       <r>    11.8600     0.0297    64.0250 </r>
       <r>    12.1005     0.0594    64.0679 </r>
       <r>    12.3411     0.0000    64.1036 </r>
       <r>    12.5816     0.0000    64.1393 </r>
       <r>    12.8221     0.0473    64.2150 </r>
       <r>    13.0627     0.1628    64.3070 </r>
       <r>    13.3032     0.1574    64.3772 </r>
       <r>    13.5437     0.1778    64.5071 </r>
       <r>    13.7843     0.1492    64.5788 </r>
       <r>    14.0248     0.2377    64.7715 </r>
       <r>    14.2653     0.3098    64.8995 </r>
       <r>    14.5058     0.3059    65.1129 </r>
       <r>    14.7464     0.1394    65.2728 </r>
       <r>    14.9869     0.2011    65.5448 </r>
       <r>    15.2274     0.5433    65.8914 </r>
       <r>    15.4680     0.5952    66.3075 </r>
       <r>    15.7085     0.6589    66.7192 </r>
       <r>    15.9490     0.5082    67.1044 </r>
       <r>    16.1896     0.5143    67.6987 </r>
       <r>    16.4301     0.4926    68.0506 </r>
       <r>    16.6706     0.4467    68.4753 </r>
       <r>    16.9112     0.2673    68.6929 </r>
       <r>    17.1517     0.3884    69.0184 </r>
       <r>    17.3922     0.4354    69.5226 </r>
       <r>    17.6327     0.5814    70.0148 </r>
       <r>    17.8733     0.8829    70.5409 </r>
       <r>    18.1138     0.7262    70.9104 </r>
       <r>    18.3543     0.7319    71.2975 </r>
       <r>    18.5949     0.2663    71.5998 </r>
       <r>    18.8354     0.0289    71.9212 </r>
       <r>    19.0759     0.0000    72.0000 </r>
       <r>    19.3165     0.0000    72.0000 </r>
       <r>    19.5570     0.0000    72.0000 </r>
       <r>    19.7975     0.0000    72.0000 </r>
       <r>    20.0381     0.0000    72.0000 </r>
       <r>    20.2786     0.0000    72.0000 </r>
       <r>    20.5191     0.0000    72.0000 </r>
       <r>    20.7596     0.0000    72.0000 </r>
       <r>    21.0002     0.0000    72.0000 </r>
       <r>    21.2407     0.0000    72.0000 </r>
       <r>    21.4812     0.0000    72.0000 </r>
       <r>    21.7218     0.0000    72.0000 </r>
       <r>    21.9623     0.0000    72.0000 </r>
       <r>    22.2028     0.0000    72.0000 </r>
      </set>
     </set>
    </array>
   </total>
  </dos>
 </calculation>
 <structure name="finalpos" >
  <crystal>
   <varray name="basis" >
    <v>       2.87531163      -0.00000334      -0.00000048 </v>
    <v>      -0.00000670       4.65168200       0.00001239 </v>
    <v>       0.00000013       0.00001928       9.26355187 </v>
   </varray>
   <i name="volume">    123.90033379 </i>
   <varray name="rec_basis" >
    <v>       0.34778839       0.00000050      -0.00000000 </v>
    <v>       0.00000025       0.21497600      -0.00000045 </v>
    <v>       0.00000002      -0.00000029       0.10794995 </v>
   </varray>
  </crystal>
  <varray name="positions" >
   <v>       0.24999934       0.03511357       0.86540186 </v>
   <v>       0.74999935       0.96489059       0.13459893 </v>
   <v>       0.75000091       0.53511210       0.63459890 </v>
   <v>       0.25000045       0.46488653       0.36540153 </v>
   <v>       0.25000071       0.71267705       0.53058355 </v>
   <v>       0.74999975       0.21267748       0.96941626 </v>
   <v>       0.24999903       0.78732357       0.03058459 </v>
   <v>       0.75000019       0.28732365       0.46941768 </v>
   <v>       0.24999964       0.15763380       0.22636992 </v>
   <v>       0.25000066       0.34236557       0.72636918 </v>
   <v>       0.75000552       0.65763100       0.27362860 </v>
   <v>       0.74999444       0.84236609       0.77362999 </v>
  </varray>
 </structure>
</modeling>
