unknown system                          
           1
     2.875312   -0.000003   -0.000000
    -0.000007    4.651682    0.000012
     0.000000    0.000019    9.263552
   Mn   O 
   4   8
Direct configuration=     1
   0.24999934  0.03511357  0.86540186
   0.74999935  0.96489059  0.13459893
   0.75000091  0.53511210  0.63459890
   0.25000045  0.46488653  0.36540153
   0.25000071  0.71267705  0.53058355
   0.74999975  0.21267748  0.96941626
   0.24999903  0.78732357  0.03058459
   0.75000019  0.28732365  0.46941768
   0.24999964  0.15763380  0.22636992
   0.25000066  0.34236557  0.72636918
   0.75000552  0.65763100  0.27362860
   0.74999444  0.84236609  0.77362999
