  12  12   1   0
  0.1050332E+02  0.2916331E-09  0.4580966E-09  0.9434393E-09  0.5000000E-15
  1.000000000000000E-004
  CAR 
 unknown system                          
      9.66566785    -49.29180992  301      4.01557623      1.00000000
    -49.292  0.0000E+00  0.0000E+00  0.0000E+00  0.0000E+00
    -49.095  0.0000E+00  0.0000E+00  0.0000E+00  0.0000E+00
    -48.899  0.0000E+00  0.0000E+00  0.0000E+00  0.0000E+00
    -48.702  0.0000E+00  0.0000E+00  0.0000E+00  0.0000E+00
    -48.506  0.0000E+00  0.0000E+00  0.0000E+00  0.0000E+00
    -48.309  0.0000E+00  0.0000E+00  0.0000E+00  0.0000E+00
    -48.113  0.0000E+00  0.0000E+00  0.0000E+00  0.0000E+00
    -47.916  0.0000E+00  0.0000E+00  0.0000E+00  0.0000E+00
    -47.720  0.0000E+00  0.0000E+00  0.0000E+00  0.0000E+00
    -47.523  0.0000E+00  0.0000E+00  0.0000E+00  0.0000E+00
    -47.327  0.0000E+00  0.0000E+00  0.0000E+00  0.0000E+00
    -47.130  0.0000E+00  0.0000E+00  0.0000E+00  0.0000E+00
    -46.934  0.0000E+00  0.0000E+00  0.0000E+00  0.0000E+00
    -46.737  0.0000E+00  0.0000E+00  0.0000E+00  0.0000E+00
    -46.540  0.3275E-01  0.3271E-01  0.6436E-02  0.6429E-02
    -46.344  0.4274E-01  0.4274E-01  0.3015E-01  0.3015E-01
    -46.147  0.0000E+00  0.0000E+00  0.3015E-01  0.3015E-01
    -45.951  0.0000E+00  0.0000E+00  0.3015E-01  0.3015E-01
    -45.754  0.0000E+00  0.0000E+00  0.3015E-01  0.3015E-01
    -45.558  0.0000E+00  0.0000E+00  0.3015E-01  0.3015E-01
    -45.361  0.0000E+00  0.0000E+00  0.3015E-01  0.3015E-01
    -45.165  0.0000E+00  0.0000E+00  0.3015E-01  0.3015E-01
    -44.968  0.0000E+00  0.0000E+00  0.3015E-01  0.3015E-01
    -44.772  0.0000E+00  0.0000E+00  0.3015E-01  0.3015E-01
    -44.575  0.0000E+00  0.0000E+00  0.3015E-01  0.3015E-01
    -44.379  0.0000E+00  0.0000E+00  0.3015E-01  0.3015E-01
    -44.182  0.0000E+00  0.0000E+00  0.3015E-01  0.3015E-01
    -43.986  0.0000E+00  0.0000E+00  0.3015E-01  0.3015E-01
    -43.789  0.0000E+00  0.0000E+00  0.3015E-01  0.3015E-01
    -43.593  0.3019E-01  0.3023E-01  0.3608E-01  0.3609E-01
    -43.396  0.7675E-03  0.7823E-03  0.5040E-01  0.5041E-01
    -43.200  0.0000E+00  0.0000E+00  0.6030E-01  0.6030E-01
    -43.003  0.0000E+00  0.0000E+00  0.6030E-01  0.6030E-01
    -42.806  0.0000E+00  0.0000E+00  0.6030E-01  0.6030E-01
    -42.610  0.0000E+00  0.0000E+00  0.6030E-01  0.6030E-01
    -42.413  0.0000E+00  0.0000E+00  0.6030E-01  0.6030E-01
    -42.217  0.0000E+00  0.0000E+00  0.6030E-01  0.6030E-01
    -42.020  0.0000E+00  0.0000E+00  0.6030E-01  0.6030E-01
    -41.824  0.0000E+00  0.0000E+00  0.6030E-01  0.6030E-01
    -41.627  0.0000E+00  0.0000E+00  0.6030E-01  0.6030E-01
    -41.431  0.0000E+00  0.0000E+00  0.6030E-01  0.6030E-01
    -41.234  0.0000E+00  0.0000E+00  0.6030E-01  0.6030E-01
    -41.038  0.0000E+00  0.0000E+00  0.6030E-01  0.6030E-01
    -40.841  0.0000E+00  0.0000E+00  0.6030E-01  0.6030E-01
    -40.645  0.0000E+00  0.0000E+00  0.6030E-01  0.6030E-01
    -40.448  0.0000E+00  0.0000E+00  0.6030E-01  0.6030E-01
    -40.252  0.0000E+00  0.0000E+00  0.6030E-01  0.6030E-01
    -40.055  0.0000E+00  0.0000E+00  0.6030E-01  0.6030E-01
    -39.859  0.0000E+00  0.0000E+00  0.6030E-01  0.6030E-01
    -39.662  0.0000E+00  0.0000E+00  0.6030E-01  0.6030E-01
    -39.466  0.0000E+00  0.0000E+00  0.6030E-01  0.6030E-01
    -39.269  0.0000E+00  0.0000E+00  0.6030E-01  0.6030E-01
    -39.073  0.0000E+00  0.0000E+00  0.6030E-01  0.6030E-01
    -38.876  0.0000E+00  0.0000E+00  0.6030E-01  0.6030E-01
    -38.679  0.0000E+00  0.0000E+00  0.6030E-01  0.6030E-01
    -38.483  0.0000E+00  0.0000E+00  0.6030E-01  0.6030E-01
    -38.286  0.0000E+00  0.0000E+00  0.6030E-01  0.6030E-01
    -38.090  0.0000E+00  0.0000E+00  0.6030E-01  0.6030E-01
    -37.893  0.0000E+00  0.0000E+00  0.6030E-01  0.6030E-01
    -37.697  0.0000E+00  0.0000E+00  0.6030E-01  0.6030E-01
    -37.500  0.0000E+00  0.0000E+00  0.6030E-01  0.6030E-01
    -37.304  0.0000E+00  0.0000E+00  0.6030E-01  0.6030E-01
    -37.107  0.0000E+00  0.0000E+00  0.6030E-01  0.6030E-01
    -36.911  0.0000E+00  0.0000E+00  0.6030E-01  0.6030E-01
    -36.714  0.0000E+00  0.0000E+00  0.6030E-01  0.6030E-01
    -36.518  0.0000E+00  0.0000E+00  0.6030E-01  0.6030E-01
    -36.321  0.0000E+00  0.0000E+00  0.6030E-01  0.6030E-01
    -36.125  0.0000E+00  0.0000E+00  0.6030E-01  0.6030E-01
    -35.928  0.0000E+00  0.0000E+00  0.6030E-01  0.6030E-01
    -35.732  0.0000E+00  0.0000E+00  0.6030E-01  0.6030E-01
    -35.535  0.0000E+00  0.0000E+00  0.6030E-01  0.6030E-01
    -35.339  0.0000E+00  0.0000E+00  0.6030E-01  0.6030E-01
    -35.142  0.0000E+00  0.0000E+00  0.6030E-01  0.6030E-01
    -34.945  0.0000E+00  0.0000E+00  0.6030E-01  0.6030E-01
    -34.749  0.0000E+00  0.0000E+00  0.6030E-01  0.6030E-01
    -34.552  0.0000E+00  0.0000E+00  0.6030E-01  0.6030E-01
    -34.356  0.0000E+00  0.0000E+00  0.6030E-01  0.6030E-01
    -34.159  0.0000E+00  0.0000E+00  0.6030E-01  0.6030E-01
    -33.963  0.0000E+00  0.0000E+00  0.6030E-01  0.6030E-01
    -33.766  0.0000E+00  0.0000E+00  0.6030E-01  0.6030E-01
    -33.570  0.0000E+00  0.0000E+00  0.6030E-01  0.6030E-01
    -33.373  0.0000E+00  0.0000E+00  0.6030E-01  0.6030E-01
    -33.177  0.0000E+00  0.0000E+00  0.6030E-01  0.6030E-01
    -32.980  0.0000E+00  0.0000E+00  0.6030E-01  0.6030E-01
    -32.784  0.0000E+00  0.0000E+00  0.6030E-01  0.6030E-01
    -32.587  0.0000E+00  0.0000E+00  0.6030E-01  0.6030E-01
    -32.391  0.0000E+00  0.0000E+00  0.6030E-01  0.6030E-01
    -32.194  0.0000E+00  0.0000E+00  0.6030E-01  0.6030E-01
    -31.998  0.0000E+00  0.0000E+00  0.6030E-01  0.6030E-01
    -31.801  0.0000E+00  0.0000E+00  0.6030E-01  0.6030E-01
    -31.605  0.0000E+00  0.0000E+00  0.6030E-01  0.6030E-01
    -31.408  0.0000E+00  0.0000E+00  0.6030E-01  0.6030E-01
    -31.212  0.0000E+00  0.0000E+00  0.6030E-01  0.6030E-01
    -31.015  0.0000E+00  0.0000E+00  0.6030E-01  0.6030E-01
    -30.818  0.0000E+00  0.0000E+00  0.6030E-01  0.6030E-01
    -30.622  0.0000E+00  0.0000E+00  0.6030E-01  0.6030E-01
    -30.425  0.0000E+00  0.0000E+00  0.6030E-01  0.6030E-01
    -30.229  0.0000E+00  0.0000E+00  0.6030E-01  0.6030E-01
    -30.032  0.0000E+00  0.0000E+00  0.6030E-01  0.6030E-01
    -29.836  0.0000E+00  0.0000E+00  0.6030E-01  0.6030E-01
    -29.639  0.0000E+00  0.0000E+00  0.6030E-01  0.6030E-01
    -29.443  0.0000E+00  0.0000E+00  0.6030E-01  0.6030E-01
    -29.246  0.0000E+00  0.0000E+00  0.6030E-01  0.6030E-01
    -29.050  0.0000E+00  0.0000E+00  0.6030E-01  0.6030E-01
    -28.853  0.0000E+00  0.0000E+00  0.6030E-01  0.6030E-01
    -28.657  0.0000E+00  0.0000E+00  0.6030E-01  0.6030E-01
    -28.460  0.0000E+00  0.0000E+00  0.6030E-01  0.6030E-01
    -28.264  0.0000E+00  0.0000E+00  0.6030E-01  0.6030E-01
    -28.067  0.0000E+00  0.0000E+00  0.6030E-01  0.6030E-01
    -27.871  0.0000E+00  0.0000E+00  0.6030E-01  0.6030E-01
    -27.674  0.0000E+00  0.0000E+00  0.6030E-01  0.6030E-01
    -27.478  0.0000E+00  0.0000E+00  0.6030E-01  0.6030E-01
    -27.281  0.0000E+00  0.0000E+00  0.6030E-01  0.6030E-01
    -27.084  0.0000E+00  0.0000E+00  0.6030E-01  0.6030E-01
    -26.888  0.0000E+00  0.0000E+00  0.6030E-01  0.6030E-01
    -26.691  0.0000E+00  0.0000E+00  0.6030E-01  0.6030E-01
    -26.495  0.0000E+00  0.0000E+00  0.6030E-01  0.6030E-01
    -26.298  0.0000E+00  0.0000E+00  0.6030E-01  0.6030E-01
    -26.102  0.0000E+00  0.0000E+00  0.6030E-01  0.6030E-01
    -25.905  0.0000E+00  0.0000E+00  0.6030E-01  0.6030E-01
    -25.709  0.0000E+00  0.0000E+00  0.6030E-01  0.6030E-01
    -25.512  0.0000E+00  0.0000E+00  0.6030E-01  0.6030E-01
    -25.316  0.0000E+00  0.0000E+00  0.6030E-01  0.6030E-01
    -25.119  0.0000E+00  0.0000E+00  0.6030E-01  0.6030E-01
    -24.923  0.0000E+00  0.0000E+00  0.6030E-01  0.6030E-01
    -24.726  0.0000E+00  0.0000E+00  0.6030E-01  0.6030E-01
    -24.530  0.0000E+00  0.0000E+00  0.6030E-01  0.6030E-01
    -24.333  0.0000E+00  0.0000E+00  0.6030E-01  0.6030E-01
    -24.137  0.0000E+00  0.0000E+00  0.6030E-01  0.6030E-01
    -23.940  0.0000E+00  0.0000E+00  0.6030E-01  0.6030E-01
    -23.744  0.0000E+00  0.0000E+00  0.6030E-01  0.6030E-01
    -23.547  0.0000E+00  0.0000E+00  0.6030E-01  0.6030E-01
    -23.351  0.0000E+00  0.0000E+00  0.6030E-01  0.6030E-01
    -23.154  0.0000E+00  0.0000E+00  0.6030E-01  0.6030E-01
    -22.957  0.0000E+00  0.0000E+00  0.6030E-01  0.6030E-01
    -22.761  0.0000E+00  0.0000E+00  0.6030E-01  0.6030E-01
    -22.564  0.0000E+00  0.0000E+00  0.6030E-01  0.6030E-01
    -22.368  0.0000E+00  0.0000E+00  0.6030E-01  0.6030E-01
    -22.171  0.0000E+00  0.0000E+00  0.6030E-01  0.6030E-01
    -21.975  0.0000E+00  0.0000E+00  0.6030E-01  0.6030E-01
    -21.778  0.0000E+00  0.0000E+00  0.6030E-01  0.6030E-01
    -21.582  0.0000E+00  0.0000E+00  0.6030E-01  0.6030E-01
    -21.385  0.0000E+00  0.0000E+00  0.6030E-01  0.6030E-01
    -21.189  0.0000E+00  0.0000E+00  0.6030E-01  0.6030E-01
    -20.992  0.0000E+00  0.0000E+00  0.6030E-01  0.6030E-01
    -20.796  0.0000E+00  0.0000E+00  0.6030E-01  0.6030E-01
    -20.599  0.0000E+00  0.0000E+00  0.6030E-01  0.6030E-01
    -20.403  0.0000E+00  0.0000E+00  0.6030E-01  0.6030E-01
    -20.206  0.0000E+00  0.0000E+00  0.6030E-01  0.6030E-01
    -20.010  0.0000E+00  0.0000E+00  0.6030E-01  0.6030E-01
    -19.813  0.0000E+00  0.0000E+00  0.6030E-01  0.6030E-01
    -19.617  0.0000E+00  0.0000E+00  0.6030E-01  0.6030E-01
    -19.420  0.0000E+00  0.0000E+00  0.6030E-01  0.6030E-01
    -19.223  0.0000E+00  0.0000E+00  0.6030E-01  0.6030E-01
    -19.027  0.0000E+00  0.0000E+00  0.6030E-01  0.6030E-01
    -18.830  0.0000E+00  0.0000E+00  0.6030E-01  0.6030E-01
    -18.634  0.0000E+00  0.0000E+00  0.6030E-01  0.6030E-01
    -18.437  0.0000E+00  0.0000E+00  0.6030E-01  0.6030E-01
    -18.241  0.0000E+00  0.0000E+00  0.6030E-01  0.6030E-01
    -18.044  0.0000E+00  0.0000E+00  0.6030E-01  0.6030E-01
    -17.848  0.0000E+00  0.0000E+00  0.6030E-01  0.6030E-01
    -17.651  0.0000E+00  0.0000E+00  0.6030E-01  0.6030E-01
    -17.455  0.0000E+00  0.0000E+00  0.6030E-01  0.6030E-01
    -17.258  0.0000E+00  0.0000E+00  0.6030E-01  0.6030E-01
    -17.062  0.0000E+00  0.0000E+00  0.6030E-01  0.6030E-01
    -16.865  0.0000E+00  0.0000E+00  0.6030E-01  0.6030E-01
    -16.669  0.0000E+00  0.0000E+00  0.6030E-01  0.6030E-01
    -16.472  0.0000E+00  0.0000E+00  0.6030E-01  0.6030E-01
    -16.276  0.0000E+00  0.0000E+00  0.6030E-01  0.6030E-01
    -16.079  0.0000E+00  0.0000E+00  0.6030E-01  0.6030E-01
    -15.883  0.0000E+00  0.0000E+00  0.6030E-01  0.6030E-01
    -15.686  0.0000E+00  0.0000E+00  0.6030E-01  0.6030E-01
    -15.490  0.9116E-03  0.9116E-03  0.6050E-01  0.6050E-01
    -15.293  0.2133E-02  0.2133E-02  0.6137E-01  0.6137E-01
    -15.096  0.3995E-02  0.3995E-02  0.6311E-01  0.6311E-01
    -14.900  0.2894E-02  0.2895E-02  0.6460E-01  0.6460E-01
    -14.703  0.2304E-02  0.2304E-02  0.6599E-01  0.6599E-01
    -14.507  0.3258E-02  0.3258E-02  0.6753E-01  0.6753E-01
    -14.310  0.5594E-02  0.5593E-02  0.6949E-01  0.6949E-01
    -14.114  0.4113E-02  0.4112E-02  0.7251E-01  0.7251E-01
    -13.917  0.5885E-02  0.5876E-02  0.7731E-01  0.7730E-01
    -13.721  0.1662E-01  0.1660E-01  0.8622E-01  0.8621E-01
    -13.524  0.2150E-01  0.2153E-01  0.9872E-01  0.9872E-01
    -13.328  0.0000E+00  0.0000E+00  0.1005E+00  0.1005E+00
    -13.131  0.0000E+00  0.0000E+00  0.1005E+00  0.1005E+00
    -12.935  0.0000E+00  0.0000E+00  0.1005E+00  0.1005E+00
    -12.738  0.0000E+00  0.0000E+00  0.1005E+00  0.1005E+00
    -12.542  0.0000E+00  0.0000E+00  0.1005E+00  0.1005E+00
    -12.345  0.0000E+00  0.0000E+00  0.1005E+00  0.1005E+00
    -12.149  0.0000E+00  0.0000E+00  0.1005E+00  0.1005E+00
    -11.952  0.0000E+00  0.0000E+00  0.1005E+00  0.1005E+00
    -11.756  0.0000E+00  0.0000E+00  0.1005E+00  0.1005E+00
    -11.559  0.0000E+00  0.0000E+00  0.1005E+00  0.1005E+00
    -11.362  0.0000E+00  0.0000E+00  0.1005E+00  0.1005E+00
    -11.166  0.0000E+00  0.0000E+00  0.1005E+00  0.1005E+00
    -10.969  0.0000E+00  0.0000E+00  0.1005E+00  0.1005E+00
    -10.773  0.0000E+00  0.0000E+00  0.1005E+00  0.1005E+00
    -10.576  0.0000E+00  0.0000E+00  0.1005E+00  0.1005E+00
    -10.380  0.0000E+00  0.0000E+00  0.1005E+00  0.1005E+00
    -10.183  0.0000E+00  0.0000E+00  0.1005E+00  0.1005E+00
     -9.987  0.0000E+00  0.0000E+00  0.1005E+00  0.1005E+00
     -9.790  0.0000E+00  0.0000E+00  0.1005E+00  0.1005E+00
     -9.594  0.0000E+00  0.0000E+00  0.1005E+00  0.1005E+00
     -9.397  0.0000E+00  0.0000E+00  0.1005E+00  0.1005E+00
     -9.201  0.0000E+00  0.0000E+00  0.1005E+00  0.1005E+00
     -9.004  0.0000E+00  0.0000E+00  0.1005E+00  0.1005E+00
     -8.808  0.0000E+00  0.0000E+00  0.1005E+00  0.1005E+00
     -8.611  0.0000E+00  0.0000E+00  0.1005E+00  0.1005E+00
     -8.415  0.0000E+00  0.0000E+00  0.1005E+00  0.1005E+00
     -8.218  0.0000E+00  0.0000E+00  0.1005E+00  0.1005E+00
     -8.022  0.0000E+00  0.0000E+00  0.1005E+00  0.1005E+00
     -7.825  0.0000E+00  0.0000E+00  0.1005E+00  0.1005E+00
     -7.629  0.0000E+00  0.0000E+00  0.1005E+00  0.1005E+00
     -7.432  0.0000E+00  0.0000E+00  0.1005E+00  0.1005E+00
     -7.235  0.0000E+00  0.0000E+00  0.1005E+00  0.1005E+00
     -7.039  0.0000E+00  0.0000E+00  0.1005E+00  0.1005E+00
     -6.842  0.0000E+00  0.0000E+00  0.1005E+00  0.1005E+00
     -6.646  0.0000E+00  0.0000E+00  0.1005E+00  0.1005E+00
     -6.449  0.0000E+00  0.0000E+00  0.1005E+00  0.1005E+00
     -6.253  0.0000E+00  0.0000E+00  0.1005E+00  0.1005E+00
     -6.056  0.0000E+00  0.0000E+00  0.1005E+00  0.1005E+00
     -5.860  0.0000E+00  0.0000E+00  0.1005E+00  0.1005E+00
     -5.663  0.0000E+00  0.0000E+00  0.1005E+00  0.1005E+00
     -5.467  0.0000E+00  0.0000E+00  0.1005E+00  0.1005E+00
     -5.270  0.0000E+00  0.0000E+00  0.1005E+00  0.1005E+00
     -5.074  0.0000E+00  0.0000E+00  0.1005E+00  0.1005E+00
     -4.877  0.0000E+00  0.0000E+00  0.1005E+00  0.1005E+00
     -4.681  0.0000E+00  0.0000E+00  0.1005E+00  0.1005E+00
     -4.484  0.0000E+00  0.0000E+00  0.1005E+00  0.1005E+00
     -4.288  0.0000E+00  0.0000E+00  0.1005E+00  0.1005E+00
     -4.091  0.0000E+00  0.0000E+00  0.1005E+00  0.1005E+00
     -3.895  0.0000E+00  0.0000E+00  0.1005E+00  0.1005E+00
     -3.698  0.0000E+00  0.0000E+00  0.1005E+00  0.1005E+00
     -3.502  0.0000E+00  0.0000E+00  0.1005E+00  0.1005E+00
     -3.305  0.0000E+00  0.0000E+00  0.1005E+00  0.1005E+00
     -3.108  0.6106E-11  0.5887E-11  0.1005E+00  0.1005E+00
     -2.912  0.1511E-02  0.1509E-02  0.1009E+00  0.1009E+00
     -2.715  0.2426E-02  0.2421E-02  0.1020E+00  0.1020E+00
     -2.519  0.5146E-02  0.5137E-02  0.1038E+00  0.1038E+00
     -2.322  0.3981E-02  0.3980E-02  0.1075E+00  0.1075E+00
     -2.126  0.7588E-02  0.7582E-02  0.1112E+00  0.1112E+00
     -1.929  0.1482E-01  0.1481E-01  0.1165E+00  0.1165E+00
     -1.733  0.1620E-01  0.1619E-01  0.1233E+00  0.1233E+00
     -1.536  0.1270E-01  0.1270E-01  0.1305E+00  0.1305E+00
     -1.340  0.1414E-01  0.1414E-01  0.1373E+00  0.1373E+00
     -1.143  0.3327E-02  0.3330E-02  0.1406E+00  0.1406E+00
     -0.947  0.8241E-02  0.8243E-02  0.1440E+00  0.1440E+00
     -0.750  0.1400E-01  0.1400E-01  0.1491E+00  0.1491E+00
     -0.554  0.7030E-02  0.7031E-02  0.1528E+00  0.1528E+00
     -0.357  0.1030E-01  0.1031E-01  0.1575E+00  0.1575E+00
     -0.161  0.7144E-02  0.7144E-02  0.1613E+00  0.1613E+00
      0.036  0.6073E-02  0.6074E-02  0.1641E+00  0.1641E+00
      0.232  0.9259E-02  0.9258E-02  0.1686E+00  0.1686E+00
      0.429  0.1086E-01  0.1086E-01  0.1756E+00  0.1756E+00
      0.626  0.1204E-01  0.1204E-01  0.1807E+00  0.1807E+00
      0.822  0.8330E-02  0.8331E-02  0.1866E+00  0.1866E+00
      1.019  0.6970E-02  0.6970E-02  0.1907E+00  0.1907E+00
      1.215  0.1381E-01  0.1381E-01  0.1963E+00  0.1963E+00
      1.412  0.7648E-02  0.7649E-02  0.1996E+00  0.1996E+00
      1.608  0.5057E-02  0.5056E-02  0.2030E+00  0.2030E+00
      1.805  0.8580E-02  0.8578E-02  0.2077E+00  0.2077E+00
      2.001  0.1009E-01  0.1009E-01  0.2128E+00  0.2128E+00
      2.198  0.9489E-02  0.9487E-02  0.2177E+00  0.2177E+00
      2.394  0.1306E-01  0.1305E-01  0.2235E+00  0.2235E+00
      2.591  0.1941E-01  0.1941E-01  0.2323E+00  0.2323E+00
      2.787  0.2225E-02  0.2225E-02  0.2349E+00  0.2349E+00
      2.984  0.1141E-01  0.1141E-01  0.2392E+00  0.2392E+00
      3.180  0.1096E-02  0.1096E-02  0.2415E+00  0.2415E+00
      3.377  0.5046E-02  0.5037E-02  0.2431E+00  0.2431E+00
      3.573  0.6076E-02  0.6076E-02  0.2465E+00  0.2465E+00
      3.770  0.8501E-02  0.8498E-02  0.2502E+00  0.2502E+00
      3.966  0.0000E+00  0.0000E+00  0.2513E+00  0.2513E+00
      4.163  0.0000E+00  0.0000E+00  0.2513E+00  0.2513E+00
      4.359  0.0000E+00  0.0000E+00  0.2513E+00  0.2513E+00
      4.556  0.0000E+00  0.0000E+00  0.2513E+00  0.2513E+00
      4.753  0.3145E-02  0.3146E-02  0.2521E+00  0.2521E+00
      4.949  0.1030E-01  0.1030E-01  0.2560E+00  0.2560E+00
      5.146  0.8464E-02  0.8465E-02  0.2620E+00  0.2620E+00
      5.342  0.9620E-02  0.9625E-02  0.2677E+00  0.2677E+00
      5.539  0.1274E-01  0.1275E-01  0.2765E+00  0.2765E+00
      5.735  0.4141E-02  0.4142E-02  0.2802E+00  0.2802E+00
      5.932  0.6623E-02  0.6631E-02  0.2827E+00  0.2827E+00
      6.128  0.8861E-02  0.8859E-02  0.2872E+00  0.2872E+00
      6.325  0.9306E-02  0.9309E-02  0.2910E+00  0.2910E+00
      6.521  0.1134E-01  0.1134E-01  0.2956E+00  0.2956E+00
      6.718  0.6239E-02  0.6055E-02  0.3008E+00  0.3008E+00
      6.914  0.5512E-03  0.5513E-03  0.3014E+00  0.3014E+00
      7.111  0.0000E+00  0.0000E+00  0.3015E+00  0.3015E+00
      7.307  0.0000E+00  0.0000E+00  0.3015E+00  0.3015E+00
      7.504  0.0000E+00  0.0000E+00  0.3015E+00  0.3015E+00
      7.700  0.0000E+00  0.0000E+00  0.3015E+00  0.3015E+00
      7.897  0.0000E+00  0.0000E+00  0.3015E+00  0.3015E+00
      8.093  0.0000E+00  0.0000E+00  0.3015E+00  0.3015E+00
      8.290  0.0000E+00  0.0000E+00  0.3015E+00  0.3015E+00
      8.487  0.0000E+00  0.0000E+00  0.3015E+00  0.3015E+00
      8.683  0.0000E+00  0.0000E+00  0.3015E+00  0.3015E+00
      8.880  0.0000E+00  0.0000E+00  0.3015E+00  0.3015E+00
      9.076  0.0000E+00  0.0000E+00  0.3015E+00  0.3015E+00
      9.273  0.0000E+00  0.0000E+00  0.3015E+00  0.3015E+00
      9.469  0.0000E+00  0.0000E+00  0.3015E+00  0.3015E+00
      9.666  0.0000E+00  0.0000E+00  0.3015E+00  0.3015E+00
      9.66566785    -49.29180992  301      4.01557623      1.00000000
    -49.292  0.0000E+00  0.0000E+00  0.0000E+00  0.0000E+00  0.0000E+00  0.0000E+00  0.0000E+00  0.0000E+00  0.0000E+00  0.0000E+00  0.0000E+00  0.0000E+00  0.0000E+00  0.0000E+00  0.0000E+00  0.0000E+00  0.0000E+00  0.0000E+00
    -49.095  0.0000E+00  0.0000E+00  0.0000E+00  0.0000E+00  0.0000E+00  0.0000E+00  0.0000E+00  0.0000E+00  0.0000E+00  0.0000E+00  0.0000E+00  0.0000E+00  0.0000E+00  0.0000E+00  0.0000E+00  0.0000E+00  0.0000E+00  0.0000E+00
    -48.899  0.0000E+00  0.0000E+00  0.0000E+00  0.0000E+00  0.0000E+00  0.0000E+00  0.0000E+00  0.0000E+00  0.0000E+00  0.0000E+00  0.0000E+00  0.0000E+00  0.0000E+00  0.0000E+00  0.0000E+00  0.0000E+00  0.0000E+00  0.0000E+00
    -48.702  0.0000E+00  0.0000E+00  0.0000E+00  0.0000E+00  0.0000E+00  0.0000E+00  0.0000E+00  0.0000E+00  0.0000E+00  0.0000E+00  0.0000E+00  0.0000E+00  0.0000E+00  0.0000E+00  0.0000E+00  0.0000E+00  0.0000E+00  0.0000E+00
    -48.506  0.0000E+00  0.0000E+00  0.0000E+00  0.0000E+00  0.0000E+00  0.0000E+00  0.0000E+00  0.0000E+00  0.0000E+00  0.0000E+00  0.0000E+00  0.0000E+00  0.0000E+00  0.0000E+00  0.0000E+00  0.0000E+00  0.0000E+00  0.0000E+00
    -48.309  0.0000E+00  0.0000E+00  0.0000E+00  0.0000E+00  0.0000E+00  0.0000E+00  0.0000E+00  0.0000E+00  0.0000E+00  0.0000E+00  0.0000E+00  0.0000E+00  0.0000E+00  0.0000E+00  0.0000E+00  0.0000E+00  0.0000E+00  0.0000E+00
    -48.113  0.0000E+00  0.0000E+00  0.0000E+00  0.0000E+00  0.0000E+00  0.0000E+00  0.0000E+00  0.0000E+00  0.0000E+00  0.0000E+00  0.0000E+00  0.0000E+00  0.0000E+00  0.0000E+00  0.0000E+00  0.0000E+00  0.0000E+00  0.0000E+00
    -47.916  0.0000E+00  0.0000E+00  0.0000E+00  0.0000E+00  0.0000E+00  0.0000E+00  0.0000E+00  0.0000E+00  0.0000E+00  0.0000E+00  0.0000E+00  0.0000E+00  0.0000E+00  0.0000E+00  0.0000E+00  0.0000E+00  0.0000E+00  0.0000E+00
    -47.720  0.0000E+00  0.0000E+00  0.0000E+00  0.0000E+00  0.0000E+00  0.0000E+00  0.0000E+00  0.0000E+00  0.0000E+00  0.0000E+00  0.0000E+00  0.0000E+00  0.0000E+00  0.0000E+00  0.0000E+00  0.0000E+00  0.0000E+00  0.0000E+00
    -47.523  0.0000E+00  0.0000E+00  0.0000E+00  0.0000E+00  0.0000E+00  0.0000E+00  0.0000E+00  0.0000E+00  0.0000E+00  0.0000E+00  0.0000E+00  0.0000E+00  0.0000E+00  0.0000E+00  0.0000E+00  0.0000E+00  0.0000E+00  0.0000E+00
    -47.327  0.0000E+00  0.0000E+00  0.0000E+00  0.0000E+00  0.0000E+00  0.0000E+00  0.0000E+00  0.0000E+00  0.0000E+00  0.0000E+00  0.0000E+00  0.0000E+00  0.0000E+00  0.0000E+00  0.0000E+00  0.0000E+00  0.0000E+00  0.0000E+00
    -47.130  0.0000E+00  0.0000E+00  0.0000E+00  0.0000E+00  0.0000E+00  0.0000E+00  0.0000E+00  0.0000E+00  0.0000E+00  0.0000E+00  0.0000E+00  0.0000E+00  0.0000E+00  0.0000E+00  0.0000E+00  0.0000E+00  0.0000E+00  0.0000E+00
    -46.934  0.0000E+00  0.0000E+00  0.0000E+00  0.0000E+00  0.0000E+00  0.0000E+00  0.0000E+00  0.0000E+00  0.0000E+00  0.0000E+00  0.0000E+00  0.0000E+00  0.0000E+00  0.0000E+00  0.0000E+00  0.0000E+00  0.0000E+00  0.0000E+00
    -46.737  0.0000E+00  0.0000E+00  0.0000E+00  0.0000E+00  0.0000E+00  0.0000E+00  0.0000E+00  0.0000E+00  0.0000E+00  0.0000E+00  0.0000E+00  0.0000E+00  0.0000E+00  0.0000E+00  0.0000E+00  0.0000E+00  0.0000E+00  0.0000E+00
    -46.540  0.3762E-05  0.1608E-04  0.2036E-05  0.8066E-03  0.1246E-03  0.1458E-02  0.5578E-05  0.3210E+01  0.1928E-08  0.3771E-06  0.3514E-06  0.3196E-06  0.4466E-05  0.6134E-05  0.6746E-06  0.3611E-05  0.1221E-07  0.1843E-04
    -46.344  0.4991E-06  0.3046E-06  0.5273E-05  0.4161E+01  0.1184E-04  0.1130E+00  0.1226E-04  0.1157E-02  0.2691E-06  0.1149E-05  0.4673E-06  0.4893E-06  0.1123E-06  0.5043E-06  0.8212E-06  0.1906E-06  0.1568E-06  0.4049E-06
    -46.147  0.0000E+00  0.0000E+00  0.0000E+00  0.0000E+00  0.0000E+00  0.0000E+00  0.0000E+00  0.0000E+00  0.0000E+00  0.0000E+00  0.0000E+00  0.0000E+00  0.0000E+00  0.0000E+00  0.0000E+00  0.0000E+00  0.0000E+00  0.0000E+00
    -45.951  0.0000E+00  0.0000E+00  0.0000E+00  0.0000E+00  0.0000E+00  0.0000E+00  0.0000E+00  0.0000E+00  0.0000E+00  0.0000E+00  0.0000E+00  0.0000E+00  0.0000E+00  0.0000E+00  0.0000E+00  0.0000E+00  0.0000E+00  0.0000E+00
    -45.754  0.0000E+00  0.0000E+00  0.0000E+00  0.0000E+00  0.0000E+00  0.0000E+00  0.0000E+00  0.0000E+00  0.0000E+00  0.0000E+00  0.0000E+00  0.0000E+00  0.0000E+00  0.0000E+00  0.0000E+00  0.0000E+00  0.0000E+00  0.0000E+00
    -45.558  0.0000E+00  0.0000E+00  0.0000E+00  0.0000E+00  0.0000E+00  0.0000E+00  0.0000E+00  0.0000E+00  0.0000E+00  0.0000E+00  0.0000E+00  0.0000E+00  0.0000E+00  0.0000E+00  0.0000E+00  0.0000E+00  0.0000E+00  0.0000E+00
    -45.361  0.0000E+00  0.0000E+00  0.0000E+00  0.0000E+00  0.0000E+00  0.0000E+00  0.0000E+00  0.0000E+00  0.0000E+00  0.0000E+00  0.0000E+00  0.0000E+00  0.0000E+00  0.0000E+00  0.0000E+00  0.0000E+00  0.0000E+00  0.0000E+00
    -45.165  0.0000E+00  0.0000E+00  0.0000E+00  0.0000E+00  0.0000E+00  0.0000E+00  0.0000E+00  0.0000E+00  0.0000E+00  0.0000E+00  0.0000E+00  0.0000E+00  0.0000E+00  0.0000E+00  0.0000E+00  0.0000E+00  0.0000E+00  0.0000E+00
    -44.968  0.0000E+00  0.0000E+00  0.0000E+00  0.0000E+00  0.0000E+00  0.0000E+00  0.0000E+00  0.0000E+00  0.0000E+00  0.0000E+00  0.0000E+00  0.0000E+00  0.0000E+00  0.0000E+00  0.0000E+00  0.0000E+00  0.0000E+00  0.0000E+00
    -44.772  0.0000E+00  0.0000E+00  0.0000E+00  0.0000E+00  0.0000E+00  0.0000E+00  0.0000E+00  0.0000E+00  0.0000E+00  0.0000E+00  0.0000E+00  0.0000E+00  0.0000E+00  0.0000E+00  0.0000E+00  0.0000E+00  0.0000E+00  0.0000E+00
    -44.575  0.0000E+00  0.0000E+00  0.0000E+00  0.0000E+00  0.0000E+00  0.0000E+00  0.0000E+00  0.0000E+00  0.0000E+00  0.0000E+00  0.0000E+00  0.0000E+00  0.0000E+00  0.0000E+00  0.0000E+00  0.0000E+00  0.0000E+00  0.0000E+00
    -44.379  0.0000E+00  0.0000E+00  0.0000E+00  0.0000E+00  0.0000E+00  0.0000E+00  0.0000E+00  0.0000E+00  0.0000E+00  0.0000E+00  0.0000E+00  0.0000E+00  0.0000E+00  0.0000E+00  0.0000E+00  0.0000E+00  0.0000E+00  0.0000E+00
    -44.182  0.0000E+00  0.0000E+00  0.0000E+00  0.0000E+00  0.0000E+00  0.0000E+00  0.0000E+00  0.0000E+00  0.0000E+00  0.0000E+00  0.0000E+00  0.0000E+00  0.0000E+00  0.0000E+00  0.0000E+00  0.0000E+00  0.0000E+00  0.0000E+00
    -43.986  0.0000E+00  0.0000E+00  0.0000E+00  0.0000E+00  0.0000E+00  0.0000E+00  0.0000E+00  0.0000E+00  0.0000E+00  0.0000E+00  0.0000E+00  0.0000E+00  0.0000E+00  0.0000E+00  0.0000E+00  0.0000E+00  0.0000E+00  0.0000E+00
    -43.789  0.0000E+00  0.0000E+00  0.0000E+00  0.0000E+00  0.0000E+00  0.0000E+00  0.0000E+00  0.0000E+00  0.0000E+00  0.0000E+00  0.0000E+00  0.0000E+00  0.0000E+00  0.0000E+00  0.0000E+00  0.0000E+00  0.0000E+00  0.0000E+00
    -43.593  0.1989E-04  0.5458E-05  0.4746E-03  0.4227E-05  0.1485E-02  0.1927E-03  0.2956E+01  0.5760E-05  0.7420E-06  0.2308E-08  0.5179E-06  0.5445E-06  0.7288E-05  0.6070E-05  0.3977E-05  0.7909E-06  0.2157E-04  0.1073E-07
    -43.396  0.2777E-07  0.3320E-07  0.6976E-01  0.3097E-06  0.2539E-02  0.6067E-06  0.5370E-05  0.6575E-07  0.2530E-07  0.1637E-08  0.4741E-07  0.3130E-07  0.7914E-08  0.5765E-08  0.2202E-08  0.6049E-08  0.2151E-07  0.1071E-07
    -43.200  0.0000E+00  0.0000E+00  0.0000E+00  0.0000E+00  0.0000E+00  0.0000E+00  0.0000E+00  0.0000E+00  0.0000E+00  0.0000E+00  0.0000E+00  0.0000E+00  0.0000E+00  0.0000E+00  0.0000E+00  0.0000E+00  0.0000E+00  0.0000E+00
    -43.003  0.0000E+00  0.0000E+00  0.0000E+00  0.0000E+00  0.0000E+00  0.0000E+00  0.0000E+00  0.0000E+00  0.0000E+00  0.0000E+00  0.0000E+00  0.0000E+00  0.0000E+00  0.0000E+00  0.0000E+00  0.0000E+00  0.0000E+00  0.0000E+00
    -42.806  0.0000E+00  0.0000E+00  0.0000E+00  0.0000E+00  0.0000E+00  0.0000E+00  0.0000E+00  0.0000E+00  0.0000E+00  0.0000E+00  0.0000E+00  0.0000E+00  0.0000E+00  0.0000E+00  0.0000E+00  0.0000E+00  0.0000E+00  0.0000E+00
    -42.610  0.0000E+00  0.0000E+00  0.0000E+00  0.0000E+00  0.0000E+00  0.0000E+00  0.0000E+00  0.0000E+00  0.0000E+00  0.0000E+00  0.0000E+00  0.0000E+00  0.0000E+00  0.0000E+00  0.0000E+00  0.0000E+00  0.0000E+00  0.0000E+00
    -42.413  0.0000E+00  0.0000E+00  0.0000E+00  0.0000E+00  0.0000E+00  0.0000E+00  0.0000E+00  0.0000E+00  0.0000E+00  0.0000E+00  0.0000E+00  0.0000E+00  0.0000E+00  0.0000E+00  0.0000E+00  0.0000E+00  0.0000E+00  0.0000E+00
    -42.217  0.0000E+00  0.0000E+00  0.0000E+00  0.0000E+00  0.0000E+00  0.0000E+00  0.0000E+00  0.0000E+00  0.0000E+00  0.0000E+00  0.0000E+00  0.0000E+00  0.0000E+00  0.0000E+00  0.0000E+00  0.0000E+00  0.0000E+00  0.0000E+00
    -42.020  0.0000E+00  0.0000E+00  0.0000E+00  0.0000E+00  0.0000E+00  0.0000E+00  0.0000E+00  0.0000E+00  0.0000E+00  0.0000E+00  0.0000E+00  0.0000E+00  0.0000E+00  0.0000E+00  0.0000E+00  0.0000E+00  0.0000E+00  0.0000E+00
    -41.824  0.0000E+00  0.0000E+00  0.0000E+00  0.0000E+00  0.0000E+00  0.0000E+00  0.0000E+00  0.0000E+00  0.0000E+00  0.0000E+00  0.0000E+00  0.0000E+00  0.0000E+00  0.0000E+00  0.0000E+00  0.0000E+00  0.0000E+00  0.0000E+00
    -41.627  0.0000E+00  0.0000E+00  0.0000E+00  0.0000E+00  0.0000E+00  0.0000E+00  0.0000E+00  0.0000E+00  0.0000E+00  0.0000E+00  0.0000E+00  0.0000E+00  0.0000E+00  0.0000E+00  0.0000E+00  0.0000E+00  0.0000E+00  0.0000E+00
    -41.431  0.0000E+00  0.0000E+00  0.0000E+00  0.0000E+00  0.0000E+00  0.0000E+00  0.0000E+00  0.0000E+00  0.0000E+00  0.0000E+00  0.0000E+00  0.0000E+00  0.0000E+00  0.0000E+00  0.0000E+00  0.0000E+00  0.0000E+00  0.0000E+00
    -41.234  0.0000E+00  0.0000E+00  0.0000E+00  0.0000E+00  0.0000E+00  0.0000E+00  0.0000E+00  0.0000E+00  0.0000E+00  0.0000E+00  0.0000E+00  0.0000E+00  0.0000E+00  0.0000E+00  0.0000E+00  0.0000E+00  0.0000E+00  0.0000E+00
    -41.038  0.0000E+00  0.0000E+00  0.0000E+00  0.0000E+00  0.0000E+00  0.0000E+00  0.0000E+00  0.0000E+00  0.0000E+00  0.0000E+00  0.0000E+00  0.0000E+00  0.0000E+00  0.0000E+00  0.0000E+00  0.0000E+00  0.0000E+00  0.0000E+00
    -40.841  0.0000E+00  0.0000E+00  0.0000E+00  0.0000E+00  0.0000E+00  0.0000E+00  0.0000E+00  0.0000E+00  0.0000E+00  0.0000E+00  0.0000E+00  0.0000E+00  0.0000E+00  0.0000E+00  0.0000E+00  0.0000E+00  0.0000E+00  0.0000E+00
    -40.645  0.0000E+00  0.0000E+00  0.0000E+00  0.0000E+00  0.0000E+00  0.0000E+00  0.0000E+00  0.0000E+00  0.0000E+00  0.0000E+00  0.0000E+00  0.0000E+00  0.0000E+00  0.0000E+00  0.0000E+00  0.0000E+00  0.0000E+00  0.0000E+00
    -40.448  0.0000E+00  0.0000E+00  0.0000E+00  0.0000E+00  0.0000E+00  0.0000E+00  0.0000E+00  0.0000E+00  0.0000E+00  0.0000E+00  0.0000E+00  0.0000E+00  0.0000E+00  0.0000E+00  0.0000E+00  0.0000E+00  0.0000E+00  0.0000E+00
    -40.252  0.0000E+00  0.0000E+00  0.0000E+00  0.0000E+00  0.0000E+00  0.0000E+00  0.0000E+00  0.0000E+00  0.0000E+00  0.0000E+00  0.0000E+00  0.0000E+00  0.0000E+00  0.0000E+00  0.0000E+00  0.0000E+00  0.0000E+00  0.0000E+00
    -40.055  0.0000E+00  0.0000E+00  0.0000E+00  0.0000E+00  0.0000E+00  0.0000E+00  0.0000E+00  0.0000E+00  0.0000E+00  0.0000E+00  0.0000E+00  0.0000E+00  0.0000E+00  0.0000E+00  0.0000E+00  0.0000E+00  0.0000E+00  0.0000E+00
    -39.859  0.0000E+00  0.0000E+00  0.0000E+00  0.0000E+00  0.0000E+00  0.0000E+00  0.0000E+00  0.0000E+00  0.0000E+00  0.0000E+00  0.0000E+00  0.0000E+00  0.0000E+00  0.0000E+00  0.0000E+00  0.0000E+00  0.0000E+00  0.0000E+00
    -39.662  0.0000E+00  0.0000E+00  0.0000E+00  0.0000E+00  0.0000E+00  0.0000E+00  0.0000E+00  0.0000E+00  0.0000E+00  0.0000E+00  0.0000E+00  0.0000E+00  0.0000E+00  0.0000E+00  0.0000E+00  0.0000E+00  0.0000E+00  0.0000E+00
    -39.466  0.0000E+00  0.0000E+00  0.0000E+00  0.0000E+00  0.0000E+00  0.0000E+00  0.0000E+00  0.0000E+00  0.0000E+00  0.0000E+00  0.0000E+00  0.0000E+00  0.0000E+00  0.0000E+00  0.0000E+00  0.0000E+00  0.0000E+00  0.0000E+00