       N       E                     dE             d eps       ncg     rms          rms(c)
DAV:   1    -0.654756505884E+02   -0.65476E+02   -0.15017E+03 44928   0.395E+02    0.292E+01
RMM:   2    -0.104167494572E+03   -0.38692E+02   -0.41684E+02 37192   0.965E+01    0.297E+01
RMM:   3    -0.937068160951E+02    0.10461E+02   -0.21673E+01 42364   0.248E+01    0.152E+01
RMM:   4    -0.939859237895E+02   -0.27911E+00   -0.11117E+01 37581   0.150E+01    0.118E+01
RMM:   5    -0.932377464111E+02    0.74818E+00   -0.13344E+00 44036   0.549E+00    0.375E+00
RMM:   6    -0.932287412264E+02    0.90052E-02   -0.41688E-01 37778   0.302E+00    0.112E+00
RMM:   7    -0.932177020259E+02    0.11039E-01   -0.40192E-02 45554   0.758E-01    0.523E-01
RMM:   8    -0.932177709579E+02   -0.68932E-04   -0.19231E-02 41435   0.511E-01    0.416E-01
RMM:   9    -0.932172321957E+02    0.53876E-03   -0.31084E-03 40394   0.227E-01    0.248E-01
RMM:  10    -0.932168064757E+02    0.42572E-03   -0.20336E-03 39455   0.186E-01    0.618E-02
RMM:  11    -0.932168575595E+02   -0.51084E-04   -0.67350E-04 42707   0.892E-02    0.835E-02
RMM:  12    -0.932168111096E+02    0.46450E-04   -0.76836E-05 37195   0.393E-02    0.528E-02
RMM:  13    -0.932167885375E+02    0.22572E-04   -0.73438E-05 38780   0.344E-02    0.151E-02
RMM:  14    -0.932167877730E+02    0.76454E-06   -0.20699E-05 36780   0.153E-02    0.348E-03
RMM:  15    -0.932167879591E+02   -0.18613E-06   -0.26394E-06 22854   0.604E-03
   1 F= -.93216788E+02 E0= -.93216788E+02  d E =-.932168E+02  mag=    -0.0000
       N       E                     dE             d eps       ncg     rms          rms(c)
DAV:   1    -0.884514403108E+02    0.47653E+01   -0.11827E+03 37868   0.411E+02    0.417E+01
RMM:   2    -0.128732016746E+03   -0.40281E+02   -0.43445E+02 42597   0.104E+02    0.421E+01
RMM:   3    -0.967320431252E+02    0.32000E+02   -0.53657E+01 40731   0.365E+01    0.201E+01
RMM:   4    -0.944052626272E+02    0.23268E+01   -0.25058E+01 45791   0.184E+01    0.113E+01
RMM:   5    -0.937753596038E+02    0.62990E+00   -0.32570E+00 34559   0.966E+00    0.639E+00
RMM:   6    -0.936597437005E+02    0.11562E+00   -0.99663E-01 41953   0.455E+00    0.361E+00
RMM:   7    -0.936345531511E+02    0.25191E-01   -0.29752E-01 38184   0.245E+00    0.222E+00
RMM:   8    -0.936291116350E+02    0.54415E-02   -0.94967E-02 40799   0.137E+00    0.984E-01
RMM:   9    -0.936227781502E+02    0.63335E-02   -0.17495E-02 38724   0.599E-01    0.388E-01
RMM:  10    -0.936219500131E+02    0.82814E-03   -0.81392E-03 45380   0.313E-01    0.179E-01
RMM:  11    -0.936219208435E+02    0.29170E-04   -0.14317E-03 44876   0.145E-01    0.104E-01
RMM:  12    -0.936219460693E+02   -0.25226E-04   -0.34183E-04 37573   0.866E-02    0.462E-02
RMM:  13    -0.936219414934E+02    0.45759E-05   -0.10746E-04 39622   0.454E-02    0.204E-02
RMM:  14    -0.936219409803E+02    0.51308E-06   -0.15088E-05 38101   0.147E-02    0.110E-02
RMM:  15    -0.936219415864E+02   -0.60608E-06   -0.37098E-06 22916   0.927E-03
   2 F= -.93621942E+02 E0= -.93621942E+02  d E =-.405154E+00  mag=     0.0000
       N       E                     dE             d eps       ncg     rms          rms(c)
DAV:   1    -0.934072687556E+02    0.21467E+00   -0.24866E+02 40032   0.192E+02    0.175E+01
RMM:   2    -0.953346465945E+02   -0.19274E+01   -0.47437E+01 42586   0.405E+01    0.116E+01
RMM:   3    -0.948773598442E+02    0.45729E+00   -0.92492E+00 39139   0.145E+01    0.753E+00
RMM:   4    -0.943991206910E+02    0.47824E+00   -0.10593E+00 34609   0.540E+00    0.295E+00
RMM:   5    -0.943569782037E+02    0.42142E-01   -0.20589E-01 37071   0.221E+00    0.126E+00
RMM:   6    -0.943476340603E+02    0.93441E-02   -0.43221E-02 36246   0.970E-01    0.740E-01
RMM:   7    -0.943459869005E+02    0.16472E-02   -0.14265E-02 39687   0.552E-01    0.231E-01
RMM:   8    -0.943456976570E+02    0.28924E-03   -0.16472E-03 45624   0.176E-01    0.109E-01
RMM:   9    -0.943456885817E+02    0.90753E-05   -0.48862E-04 43466   0.889E-02    0.751E-02
RMM:  10    -0.943456776599E+02    0.10922E-04   -0.15653E-04 39594   0.532E-02    0.352E-02
RMM:  11    -0.943456721568E+02    0.55031E-05   -0.24713E-05 40458   0.224E-02    0.122E-02
RMM:  12    -0.943456716603E+02    0.49648E-06   -0.83708E-06 34015   0.111E-02
   3 F= -.94345672E+02 E0= -.94345672E+02  d E =-.112888E+01  mag=     0.0000
       N       E                     dE             d eps       ncg     rms          rms(c)
DAV:   1    -0.905700505940E+02    0.37756E+01   -0.30857E+02 46432   0.259E+02    0.180E+01
RMM:   2    -0.956974233563E+02   -0.51274E+01   -0.75079E+01 42525   0.484E+01    0.106E+01
RMM:   3    -0.956457082639E+02    0.51715E-01   -0.98201E+00 38417   0.156E+01    0.714E+00
RMM:   4    -0.952485275076E+02    0.39718E+00   -0.96387E-01 35499   0.527E+00    0.331E+00
RMM:   5    -0.951940580942E+02    0.54469E-01   -0.19962E-01 39405   0.223E+00    0.181E+00
RMM:   6    -0.951848173044E+02    0.92408E-02   -0.62610E-02 39859   0.112E+00    0.896E-01
RMM:   7    -0.951824884498E+02    0.23289E-02   -0.18358E-02 35180   0.691E-01    0.300E-01
RMM:   8    -0.951821727394E+02    0.31571E-03   -0.25218E-03 47384   0.239E-01    0.135E-01
RMM:   9    -0.951821570469E+02    0.15692E-04   -0.45864E-04 43385   0.943E-02    0.806E-02
RMM:  10    -0.951821490203E+02    0.80266E-05   -0.14366E-04 39123   0.567E-02    0.398E-02
RMM:  11    -0.951821426326E+02    0.63877E-05   -0.26622E-05 41273   0.253E-02    0.128E-02
RMM:  12    -0.951821417287E+02    0.90391E-06   -0.63648E-06 32093   0.102E-02
   4 F= -.95182142E+02 E0= -.95182142E+02  d E =-.836470E+00  mag=    -0.0000
       N       E                     dE             d eps       ncg     rms          rms(c)
DAV:   1    -0.939986186934E+02    0.11835E+01   -0.90909E+01 46256   0.142E+02    0.961E+00
RMM:   2    -0.954748145794E+02   -0.14762E+01   -0.21329E+01 42626   0.267E+01    0.558E+00
RMM:   3    -0.954585966286E+02    0.16218E-01   -0.30353E+00 38629   0.852E+00    0.403E+00
RMM:   4    -0.953270947891E+02    0.13150E+00   -0.28746E-01 35377   0.291E+00    0.181E+00
RMM:   5    -0.953089716447E+02    0.18123E-01   -0.64324E-02 38515   0.129E+00    0.880E-01
RMM:   6    -0.953055440263E+02    0.34276E-02   -0.16092E-02 39058   0.594E-01    0.464E-01
RMM:   7    -0.953049962135E+02    0.54781E-03   -0.46339E-03 36338   0.348E-01    0.155E-01
RMM:   8    -0.953049402176E+02    0.55996E-04   -0.63472E-04 47156   0.122E-01    0.769E-02
RMM:   9    -0.953049350255E+02    0.51921E-05   -0.12249E-04 42270   0.519E-02    0.414E-02
RMM:  10    -0.953049345128E+02    0.51269E-06   -0.33750E-05 38818   0.282E-02    0.193E-02
RMM:  11    -0.953049323515E+02    0.21613E-05   -0.68189E-06 34820   0.132E-02    0.714E-03
RMM:  12    -0.953049319522E+02    0.39933E-06   -0.17172E-06 20479   0.661E-03
   5 F= -.95304932E+02 E0= -.95304932E+02  d E =-.959260E+00  mag=     0.0000
       N       E                     dE             d eps       ncg     rms          rms(c)
DAV:   1    -0.928833815649E+02    0.24216E+01   -0.10246E+02 46776   0.173E+02    0.899E+00
RMM:   2    -0.954663898479E+02   -0.25830E+01   -0.27976E+01 42950   0.289E+01    0.581E+00
RMM:   3    -0.955024461429E+02   -0.36056E-01   -0.27528E+00 38337   0.799E+00    0.345E+00
RMM:   4    -0.954204056560E+02    0.82040E-01   -0.14794E-01 39330   0.215E+00    0.192E+00
RMM:   5    -0.953976542178E+02    0.22751E-01   -0.46860E-02 37401   0.103E+00    0.113E+00
RMM:   6    -0.953931685300E+02    0.44857E-02   -0.30429E-02 37344   0.822E-01    0.327E-01
RMM:   7    -0.953925374447E+02    0.63109E-03   -0.43173E-03 42940   0.338E-01    0.168E-01
RMM:   8    -0.953925226793E+02    0.14765E-04   -0.57682E-04 41810   0.118E-01    0.826E-02
RMM:   9    -0.953925364741E+02   -0.13795E-04   -0.94129E-05 40609   0.480E-02    0.381E-02
RMM:  10    -0.953925381443E+02   -0.16701E-05   -0.38855E-05 38734   0.288E-02    0.265E-02
RMM:  11    -0.953925354632E+02    0.26811E-05   -0.11037E-05 33988   0.160E-02    0.941E-03
RMM:  12    -0.953925350820E+02    0.38119E-06   -0.17049E-06 20671   0.659E-03
   6 F= -.95392535E+02 E0= -.95392535E+02  d E =-.876031E-01  mag=    -0.0000
       N       E                     dE             d eps       ncg     rms          rms(c)
DAV:   1    -0.951302382674E+02    0.26230E+00   -0.10717E+01 47376   0.559E+01    0.268E+00
RMM:   2    -0.954138769007E+02   -0.28364E+00   -0.30077E+00 42964   0.982E+00    0.160E+00
RMM:   3    -0.954296931967E+02   -0.15816E-01   -0.25991E-01 37817   0.236E+00    0.100E+00
RMM:   4    -0.954231379970E+02    0.65552E-02   -0.15811E-02 38919   0.687E-01    0.645E-01
RMM:   5    -0.954206432810E+02    0.24947E-02   -0.50237E-03 40919   0.339E-01    0.415E-01
RMM:   6    -0.954199096487E+02    0.73363E-03   -0.28654E-03 34869   0.263E-01    0.110E-01
RMM:   7    -0.954198823059E+02    0.27343E-04   -0.46329E-04 45513   0.101E-01    0.585E-02
RMM:   8    -0.954198791549E+02    0.31509E-05   -0.43591E-05 43761   0.312E-02    0.304E-02
RMM:   9    -0.954198816280E+02   -0.24731E-05   -0.12523E-05 35506   0.188E-02    0.109E-02
RMM:  10    -0.954198815860E+02    0.42042E-07   -0.31703E-06 24569   0.957E-03
   7 F= -.95419882E+02 E0= -.95419882E+02  d E =-.114950E+00  mag=    -0.0000
       N       E                     dE             d eps       ncg     rms          rms(c)
DAV:   1    -0.953215684256E+02    0.98313E-01   -0.18418E+01 40800   0.494E+01    0.342E+00
RMM:   2    -0.955175542445E+02   -0.19599E+00   -0.28763E+00 42946   0.107E+01    0.208E+00
RMM:   3    -0.955050087581E+02    0.12545E-01   -0.16724E-01 40757   0.211E+00    0.117E+00
RMM:   4    -0.954892949834E+02    0.15714E-01   -0.28714E-02 36475   0.774E-01    0.468E-01
RMM:   5    -0.954876318242E+02    0.16632E-02   -0.71291E-03 39333   0.406E-01    0.240E-01
RMM:   6    -0.954875343259E+02    0.97498E-04   -0.16928E-03 40663   0.199E-01    0.158E-01
RMM:   7    -0.954874752586E+02    0.59067E-04   -0.41310E-04 42118   0.964E-02    0.729E-02
RMM:   8    -0.954874752415E+02    0.17182E-07   -0.70009E-05 40640   0.408E-02    0.211E-02
RMM:   9    -0.954874742943E+02    0.94716E-06   -0.19136E-05 37291   0.180E-02    0.114E-02
RMM:  10    -0.954874738428E+02    0.45146E-06   -0.20320E-06 20617   0.855E-03
   8 F= -.95487474E+02 E0= -.95487474E+02  d E =-.675923E-01  mag=    -0.0000
       N       E                     dE             d eps       ncg     rms          rms(c)
DAV:   1    -0.954572436369E+02    0.30231E-01   -0.41332E+00 41168   0.234E+01    0.162E+00
RMM:   2    -0.955018316598E+02   -0.44588E-01   -0.64839E-01 42708   0.508E+00    0.982E-01
RMM:   3    -0.954996946195E+02    0.21370E-02   -0.40798E-02 41115   0.103E+00    0.553E-01
RMM:   4    -0.954961668242E+02    0.35278E-02   -0.64131E-03 36950   0.359E-01    0.226E-01
RMM:   5    -0.954958059793E+02    0.36084E-03   -0.18937E-03 38394   0.210E-01    0.131E-01
RMM:   6    -0.954957495371E+02    0.56442E-04   -0.48107E-04 41060   0.106E-01    0.739E-02
RMM:   7    -0.954957369838E+02    0.12553E-04   -0.79930E-05 42942   0.417E-02    0.321E-02
RMM:   8    -0.954957379755E+02   -0.99165E-06   -0.17722E-05 37936   0.188E-02    0.100E-02
RMM:   9    -0.954957376689E+02    0.30655E-06   -0.36400E-06 26862   0.882E-03
   9 F= -.95495738E+02 E0= -.95495738E+02  d E =-.758561E-01  mag=    -0.0000
       N       E                     dE             d eps       ncg     rms          rms(c)
DAV:   1    -0.954405503699E+02    0.55188E-01   -0.10177E+01 37512   0.349E+01    0.228E+00
RMM:   2    -0.955366805059E+02   -0.96130E-01   -0.13985E+00 42966   0.704E+00    0.146E+00
RMM:   3    -0.955242452451E+02    0.12435E-01   -0.17336E-01 39302   0.200E+00    0.958E-01
RMM:   4    -0.955162470675E+02    0.79982E-02   -0.15100E-02 35858   0.667E-01    0.414E-01
RMM:   5    -0.955151701374E+02    0.10769E-02   -0.43045E-03 35542   0.329E-01    0.182E-01
RMM:   6    -0.955149379547E+02    0.23218E-03   -0.97665E-04 37746   0.151E-01    0.851E-02
RMM:   7    -0.955149306757E+02    0.72790E-05   -0.17351E-04 41439   0.669E-02    0.334E-02
RMM:   8    -0.955149306817E+02   -0.59918E-08   -0.25117E-05 41058   0.249E-02    0.173E-02
RMM:   9    -0.955149301282E+02    0.55349E-06   -0.64040E-06 31285   0.128E-02
  10 F= -.95514930E+02 E0= -.95514930E+02  d E =-.191925E-01  mag=     0.0000
       N       E                     dE             d eps       ncg     rms          rms(c)
DAV:   1    -0.955067845383E+02    0.81461E-02   -0.12977E+00 37708   0.124E+01    0.814E-01
RMM:   2    -0.955193527513E+02   -0.12568E-01   -0.17996E-01 42960   0.252E+00    0.530E-01
RMM:   3    -0.955175623518E+02    0.17904E-02   -0.22270E-02 39352   0.716E-01    0.341E-01
RMM:   4    -0.955165562211E+02    0.10061E-02   -0.18921E-03 35885   0.237E-01    0.149E-01
RMM:   5    -0.955164176499E+02    0.13857E-03   -0.55705E-04 35315   0.119E-01    0.639E-02
RMM:   6    -0.955163887738E+02    0.28876E-04   -0.12120E-04 37938   0.531E-02    0.306E-02
RMM:   7    -0.955163877396E+02    0.10341E-05   -0.21534E-05 39491   0.236E-02    0.115E-02
RMM:   8    -0.955163874951E+02    0.24457E-06   -0.24515E-06 21270   0.907E-03
  11 F= -.95516387E+02 E0= -.95516387E+02  d E =-.206498E-01  mag=     0.0000
       N       E                     dE             d eps       ncg     rms          rms(c)
DAV:   1    -0.953149970682E+02    0.20139E+00   -0.10614E+01 45248   0.463E+01    0.190E+00
RMM:   2    -0.955215578639E+02   -0.20656E+00   -0.20191E+00 42948   0.783E+00    0.103E+00
RMM:   3    -0.955326103353E+02   -0.11052E-01   -0.10638E-01 37839   0.146E+00    0.613E-01
RMM:   4    -0.955309185367E+02    0.16918E-02   -0.45278E-03 42311   0.345E-01    0.446E-01
RMM:   5    -0.955303441635E+02    0.57437E-03   -0.23356E-03 40316   0.239E-01    0.354E-01
RMM:   6    -0.955300091217E+02    0.33504E-03   -0.21904E-03 34266   0.274E-01    0.592E-02
RMM:   7    -0.955299912489E+02    0.17873E-04   -0.12624E-04 44992   0.621E-02    0.297E-02
RMM:   8    -0.955299907763E+02    0.47262E-06   -0.22514E-05 41437   0.218E-02    0.157E-02
RMM:   9    -0.955299900673E+02    0.70895E-06   -0.77890E-06 32167   0.162E-02
  12 F= -.95529990E+02 E0= -.95529990E+02  d E =-.136026E-01  mag=    -0.0000
       N       E                     dE             d eps       ncg     rms          rms(c)
DAV:   1    -0.954799098669E+02    0.50081E-01   -0.25556E+00 45376   0.227E+01    0.925E-01
RMM:   2    -0.955294756894E+02   -0.49566E-01   -0.48488E-01 42962   0.383E+00    0.481E-01
RMM:   3    -0.955321186184E+02   -0.26429E-02   -0.25683E-02 37748   0.717E-01    0.301E-01
RMM:   4    -0.955317108224E+02    0.40780E-03   -0.10786E-03 42288   0.169E-01    0.219E-01
RMM:   5    -0.955315551554E+02    0.15567E-03   -0.47258E-04 40191   0.108E-01    0.170E-01
RMM:   6    -0.955314808740E+02    0.74281E-04   -0.51923E-04 34260   0.135E-01    0.280E-02
RMM:   7    -0.955314773961E+02    0.34779E-05   -0.30861E-05 44211   0.303E-02    0.145E-02
RMM:   8    -0.955314768948E+02    0.50135E-06   -0.49166E-06 28877   0.110E-02
  13 F= -.95531477E+02 E0= -.95531477E+02  d E =-.150894E-01  mag=     0.0000
       N       E                     dE             d eps       ncg     rms          rms(c)
DAV:   1    -0.953773129319E+02    0.15416E+00   -0.12372E+01 45496   0.475E+01    0.269E+00
RMM:   2    -0.955584946671E+02   -0.18118E+00   -0.22777E+00 42994   0.868E+00    0.156E+00
RMM:   3    -0.955543445723E+02    0.41501E-02   -0.25107E-01 38937   0.241E+00    0.112E+00
RMM:   4    -0.955441227224E+02    0.10222E-01   -0.20132E-02 36477   0.787E-01    0.494E-01
RMM:   5    -0.955426354721E+02    0.14873E-02   -0.55721E-03 36995   0.389E-01    0.228E-01
RMM:   6    -0.955424183165E+02    0.21716E-03   -0.13107E-03 39005   0.176E-01    0.106E-01
RMM:   7    -0.955424027184E+02    0.15598E-04   -0.23388E-04 38360   0.834E-02    0.386E-02
RMM:   8    -0.955424039758E+02   -0.12575E-05   -0.31991E-05 42865   0.294E-02    0.144E-02
RMM:   9    -0.955424038784E+02    0.97391E-07   -0.65854E-06 34480   0.126E-02
  14 F= -.95542404E+02 E0= -.95542404E+02  d E =-.109270E-01  mag=     0.0000
       N       E                     dE             d eps       ncg     rms          rms(c)
DAV:   1    -0.955098161817E+02    0.32588E-01   -0.25093E+00 45440   0.214E+01    0.121E+00
RMM:   2    -0.955470097859E+02   -0.37194E-01   -0.46438E-01 43008   0.394E+00    0.707E-01
RMM:   3    -0.955459505544E+02    0.10592E-02   -0.50795E-02 39017   0.108E+00    0.505E-01
RMM:   4    -0.955438865299E+02    0.20640E-02   -0.40512E-03 36480   0.354E-01    0.225E-01
RMM:   5    -0.955435767872E+02    0.30974E-03   -0.11354E-03 37151   0.176E-01    0.103E-01
RMM:   6    -0.955435321782E+02    0.44609E-04   -0.26073E-04 39085   0.788E-02    0.470E-02
RMM:   7    -0.955435295524E+02    0.26259E-05   -0.46075E-05 38163   0.372E-02    0.172E-02
RMM:   8    -0.955435294877E+02    0.64665E-07   -0.59068E-06 35249   0.131E-02
  15 F= -.95543529E+02 E0= -.95543529E+02  d E =-.120526E-01  mag=    -0.0000
       N       E                     dE             d eps       ncg     rms          rms(c)
DAV:   1    -0.954672432616E+02    0.76286E-01   -0.10317E+01 35728   0.295E+01    0.120E+00
RMM:   2    -0.955550655321E+02   -0.87822E-01   -0.89956E-01 42841   0.564E+00    0.643E-01
RMM:   3    -0.955562753139E+02   -0.12098E-02   -0.40680E-02 41423   0.969E-01    0.385E-01
RMM:   4    -0.955550917810E+02    0.11835E-02   -0.23344E-03 42130   0.237E-01    0.272E-01
RMM:   5    -0.955545073007E+02    0.58448E-03   -0.23056E-03 34515   0.235E-01    0.149E-01
RMM:   6    -0.955544375041E+02    0.69797E-04   -0.53023E-04 40965   0.120E-01    0.423E-02
RMM:   7    -0.955544298530E+02    0.76511E-05   -0.37708E-05 44901   0.273E-02    0.299E-02
RMM:   8    -0.955544308771E+02   -0.10240E-05   -0.20599E-05 34829   0.245E-02    0.146E-02
RMM:   9    -0.955544302188E+02    0.65822E-06   -0.16748E-06 20149   0.770E-03
  16 F= -.95554430E+02 E0= -.95554430E+02  d E =-.109007E-01  mag=    -0.0000
       N       E                     dE             d eps       ncg     rms          rms(c)
DAV:   1    -0.950680856829E+02    0.48635E+00   -0.57737E+01 35680   0.700E+01    0.285E+00
RMM:   2    -0.955610506747E+02   -0.49296E+00   -0.50496E+00 42884   0.135E+01    0.150E+00
RMM:   3    -0.955678164704E+02   -0.67658E-02   -0.22241E-01 42280   0.230E+00    0.898E-01
RMM:   4    -0.955610989108E+02    0.67176E-02   -0.11154E-02 40874   0.505E-01    0.616E-01
RMM:   5    -0.955580164216E+02    0.30825E-02   -0.12767E-02 34310   0.577E-01    0.257E-01
RMM:   6    -0.955578022465E+02    0.21418E-03   -0.20359E-03 41640   0.231E-01    0.112E-01
RMM:   7    -0.955577430868E+02    0.59160E-04   -0.18548E-04 43551   0.651E-02    0.676E-02
RMM:   8    -0.955577436348E+02   -0.54795E-06   -0.10204E-04 34925   0.543E-02    0.261E-02
RMM:   9    -0.955577428017E+02    0.83311E-06   -0.17959E-05 40178   0.218E-02    0.172E-02
RMM:  10    -0.955577422159E+02    0.58580E-06   -0.33504E-06 23190   0.100E-02
  17 F= -.95557742E+02 E0= -.95557742E+02  d E =-.142127E-01  mag=    -0.0000
       N       E                     dE             d eps       ncg     rms          rms(c)
DAV:   1    -0.954829009982E+02    0.74842E-01   -0.90308E+00 35696   0.275E+01    0.115E+00
RMM:   2    -0.955608652255E+02   -0.77964E-01   -0.79849E-01 42862   0.531E+00    0.652E-01
RMM:   3    -0.955619808071E+02   -0.11156E-02   -0.36925E-02 41191   0.928E-01    0.372E-01
RMM:   4    -0.955609116187E+02    0.10692E-02   -0.26201E-03 41054   0.251E-01    0.267E-01
RMM:   5    -0.955603345298E+02    0.57709E-03   -0.17803E-03 35398   0.201E-01    0.146E-01
RMM:   6    -0.955602688677E+02    0.65662E-04   -0.50139E-04 40256   0.113E-01    0.389E-02
RMM:   7    -0.955602643608E+02    0.45069E-05   -0.39911E-05 45608   0.283E-02    0.282E-02
RMM:   8    -0.955602659526E+02   -0.15918E-05   -0.13079E-05 34694   0.196E-02    0.122E-02
RMM:   9    -0.955602659642E+02   -0.11578E-07   -0.77285E-07 19885   0.581E-03
  18 F= -.95560266E+02 E0= -.95560266E+02  d E =-.167365E-01  mag=    -0.0000
       N       E                     dE             d eps       ncg     rms          rms(c)
DAV:   1    -0.954822887243E+02    0.77977E-01   -0.82291E+00 36316   0.297E+01    0.120E+00
RMM:   2    -0.955689163839E+02   -0.86628E-01   -0.88393E-01 43372   0.554E+00    0.617E-01
RMM:   3    -0.955711080553E+02   -0.21917E-02   -0.38188E-02 41077   0.956E-01    0.347E-01
RMM:   4    -0.955701949203E+02    0.91313E-03   -0.19169E-03 41845   0.216E-01    0.241E-01
RMM:   5    -0.955697475014E+02    0.44742E-03   -0.13910E-03 34563   0.190E-01    0.807E-02
RMM:   6    -0.955697360808E+02    0.11421E-04   -0.20134E-04 41406   0.725E-02    0.356E-02
RMM:   7    -0.955697349183E+02    0.11625E-05   -0.24765E-05 41522   0.242E-02    0.259E-02
RMM:   8    -0.955697344878E+02    0.43046E-06   -0.14051E-05 33860   0.187E-02    0.127E-02
RMM:   9    -0.955697343483E+02    0.13951E-06   -0.14736E-06 20137   0.774E-03
  19 F= -.95569734E+02 E0= -.95569734E+02  d E =-.946838E-02  mag=    -0.0000
       N       E                     dE             d eps       ncg     rms          rms(c)
DAV:   1    -0.952785359258E+02    0.29120E+00   -0.28165E+01 36304   0.550E+01    0.223E+00
RMM:   2    -0.955750688591E+02   -0.29653E+00   -0.30224E+00 43335   0.102E+01    0.117E+00
RMM:   3    -0.955828049231E+02   -0.77361E-02   -0.13242E-01 41169   0.177E+00    0.645E-01
RMM:   4    -0.955795979883E+02    0.32069E-02   -0.65912E-03 41552   0.405E-01    0.451E-01
RMM:   5    -0.955780710050E+02    0.15270E-02   -0.50831E-03 34769   0.354E-01    0.163E-01
RMM:   6    -0.955780059985E+02    0.65007E-04   -0.88429E-04 40607   0.160E-01    0.805E-02
RMM:   7    -0.955779920926E+02    0.13906E-04   -0.12982E-04 41812   0.554E-02    0.494E-02
RMM:   8    -0.955779901964E+02    0.18961E-05   -0.38919E-05 39009   0.317E-02    0.219E-02
RMM:   9    -0.955779910913E+02   -0.89489E-06   -0.70834E-06 32371   0.148E-02
  20 F= -.95577991E+02 E0= -.95577991E+02  d E =-.177251E-01  mag=     0.0000
       N       E                     dE             d eps       ncg     rms          rms(c)
DAV:   1    -0.955685165787E+02    0.94736E-02   -0.90509E-01 36272   0.985E+00    0.396E-01
RMM:   2    -0.955781042138E+02   -0.95876E-02   -0.97752E-02 43289   0.185E+00    0.202E-01
RMM:   3    -0.955783866213E+02   -0.28241E-03   -0.44133E-03 41183   0.322E-01    0.114E-01
RMM:   4    -0.955782880956E+02    0.98526E-04   -0.21066E-04 41965   0.712E-02    0.799E-02
RMM:   5    -0.955782407437E+02    0.47352E-04   -0.15765E-04 34509   0.639E-02    0.306E-02
RMM:   6    -0.955782389460E+02    0.17977E-05   -0.30855E-05 40399   0.284E-02    0.159E-02
RMM:   7    -0.955782381421E+02    0.80386E-06   -0.41510E-06 27114   0.106E-02
  21 F= -.95578238E+02 E0= -.95578238E+02  d E =-.179722E-01  mag=     0.0000
       N       E                     dE             d eps       ncg     rms          rms(c)
DAV:   1    -0.955421567467E+02    0.36082E-01   -0.62695E+00 35232   0.213E+01    0.846E-01
RMM:   2    -0.955862442392E+02   -0.44087E-01   -0.45223E-01 43014   0.390E+00    0.487E-01
RMM:   3    -0.955865423030E+02   -0.29806E-03   -0.22279E-02 39168   0.726E-01    0.303E-01
RMM:   4    -0.955858572231E+02    0.68508E-03   -0.17171E-03 39721   0.222E-01    0.197E-01
RMM:   5    -0.955854673301E+02    0.38989E-03   -0.69406E-04 37088   0.120E-01    0.108E-01
RMM:   6    -0.955854173279E+02    0.50002E-04   -0.39452E-04 35297   0.951E-02    0.260E-02
RMM:   7    -0.955854148131E+02    0.25147E-05   -0.32992E-05 41754   0.281E-02    0.153E-02
RMM:   8    -0.955854147392E+02    0.73933E-07   -0.53982E-06 30086   0.125E-02
  22 F= -.95585415E+02 E0= -.95585415E+02  d E =-.717660E-02  mag=    -0.0000
       N       E                     dE             d eps       ncg     rms          rms(c)
DAV:   1    -0.954432582710E+02    0.14216E+00   -0.21258E+01 35216   0.393E+01    0.156E+00
RMM:   2    -0.955948001599E+02   -0.15154E+00   -0.15496E+00 42996   0.721E+00    0.939E-01
RMM:   3    -0.955950117378E+02   -0.21158E-03   -0.77983E-02 39204   0.136E+00    0.570E-01
RMM:   4    -0.955926156849E+02    0.23961E-02   -0.59165E-03 39677   0.412E-01    0.370E-01
RMM:   5    -0.955912565904E+02    0.13591E-02   -0.23961E-03 36905   0.225E-01    0.203E-01
RMM:   6    -0.955910533424E+02    0.20325E-03   -0.14505E-03 35387   0.182E-01    0.503E-02
RMM:   7    -0.955910434929E+02    0.98495E-05   -0.12674E-04 42220   0.550E-02    0.289E-02
RMM:   8    -0.955910428706E+02    0.62229E-06   -0.19962E-05 37478   0.230E-02    0.131E-02
RMM:   9    -0.955910432270E+02   -0.35630E-06   -0.35801E-06 24862   0.108E-02
  23 F= -.95591043E+02 E0= -.95591043E+02  d E =-.128051E-01  mag=    -0.0000
       N       E                     dE             d eps       ncg     rms          rms(c)
DAV:   1    -0.955145235090E+02    0.76519E-01   -0.10560E+01 35080   0.292E+01    0.136E+00
RMM:   2    -0.955988028343E+02   -0.84279E-01   -0.89090E-01 42737   0.566E+00    0.799E-01
RMM:   3    -0.956008171007E+02   -0.20143E-02   -0.41293E-02 41729   0.974E-01    0.446E-01
RMM:   4    -0.955989564604E+02    0.18606E-02   -0.29474E-03 38844   0.258E-01    0.271E-01
RMM:   5    -0.955984520185E+02    0.50444E-03   -0.23291E-03 34805   0.237E-01    0.117E-01
RMM:   6    -0.955983896188E+02    0.62400E-04   -0.40412E-04 41225   0.100E-01    0.605E-02
RMM:   7    -0.955983827790E+02    0.68398E-05   -0.42624E-05 43946   0.301E-02    0.359E-02
RMM:   8    -0.955983858846E+02   -0.31056E-05   -0.14254E-05 34822   0.204E-02    0.130E-02
RMM:   9    -0.955983854169E+02    0.46770E-06   -0.19484E-06 20384   0.814E-03
  24 F= -.95598385E+02 E0= -.95598385E+02  d E =-.734219E-02  mag=    -0.0000
       N       E                     dE             d eps       ncg     rms          rms(c)
DAV:   1    -0.955511518671E+02    0.47234E-01   -0.61923E+00 35080   0.223E+01    0.104E+00
RMM:   2    -0.956003679861E+02   -0.49216E-01   -0.52021E-01 42744   0.433E+00    0.605E-01
RMM:   3    -0.956015495940E+02   -0.11816E-02   -0.24063E-02 41708   0.743E-01    0.341E-01
RMM:   4    -0.956004640184E+02    0.10856E-02   -0.16857E-03 38708   0.196E-01    0.204E-01
RMM:   5    -0.956001601785E+02    0.30384E-03   -0.11980E-03 34734   0.172E-01    0.735E-02
RMM:   6    -0.956001440588E+02    0.16120E-04   -0.18193E-04 42046   0.663E-02    0.469E-02
RMM:   7    -0.956001397283E+02    0.43305E-05   -0.26680E-05 40920   0.245E-02    0.263E-02
RMM:   8    -0.956001413998E+02   -0.16715E-05   -0.72858E-06 32695   0.152E-02    0.875E-03
RMM:   9    -0.956001411453E+02    0.25449E-06   -0.81776E-07 19881   0.573E-03
  25 F= -.95600141E+02 E0= -.95600141E+02  d E =-.909792E-02  mag=    -0.0000
       N       E                     dE             d eps       ncg     rms          rms(c)
DAV:   1    -0.955830316359E+02    0.17110E-01   -0.76515E+00 34936   0.222E+01    0.163E+00
RMM:   2    -0.956210987897E+02   -0.38067E-01   -0.63847E-01 42465   0.494E+00    0.135E+00
RMM:   3    -0.956103705990E+02    0.10728E-01   -0.79034E-02 40433   0.142E+00    0.595E-01
RMM:   4    -0.956066490306E+02    0.37216E-02   -0.78452E-03 36782   0.430E-01    0.283E-01
RMM:   5    -0.956060638342E+02    0.58520E-03   -0.20075E-03 36124   0.224E-01    0.131E-01
RMM:   6    -0.956059581859E+02    0.10565E-03   -0.51607E-04 38866   0.113E-01    0.736E-02
RMM:   7    -0.956059555377E+02    0.26482E-05   -0.10147E-04 41223   0.469E-02    0.373E-02
RMM:   8    -0.956059578056E+02   -0.22679E-05   -0.20724E-05 40803   0.215E-02    0.165E-02
RMM:   9    -0.956059585360E+02   -0.73037E-06   -0.59416E-06 29043   0.119E-02
  26 F= -.95605959E+02 E0= -.95605959E+02  d E =-.581739E-02  mag=     0.0000
       N       E                     dE             d eps       ncg     rms          rms(c)
DAV:   1    -0.955518916417E+02    0.54066E-01   -0.18494E+01 34904   0.345E+01    0.254E+00
RMM:   2    -0.956478822474E+02   -0.95991E-01   -0.15685E+00 42461   0.772E+00    0.216E+00
RMM:   3    -0.956191983963E+02    0.28684E-01   -0.19109E-01 40441   0.221E+00    0.910E-01
RMM:   4    -0.956104259088E+02    0.87725E-02   -0.19721E-02 37179   0.671E-01    0.442E-01
RMM:   5    -0.956089881923E+02    0.14377E-02   -0.51044E-03 35781   0.360E-01    0.202E-01
RMM:   6    -0.956087298067E+02    0.25839E-03   -0.12579E-03 39085   0.177E-01    0.116E-01
RMM:   7    -0.956087234298E+02    0.63770E-05   -0.25669E-04 41336   0.739E-02    0.593E-02
RMM:   8    -0.956087273038E+02   -0.38740E-05   -0.53731E-05 41901   0.344E-02    0.269E-02
RMM:   9    -0.956087289464E+02   -0.16426E-05   -0.17490E-05 34948   0.193E-02    0.188E-02
RMM:  10    -0.956087278715E+02    0.10749E-05   -0.44077E-06 27220   0.110E-02    0.521E-03
RMM:  11    -0.956087279470E+02   -0.75488E-07   -0.51419E-07 19885   0.422E-03
  27 F= -.95608728E+02 E0= -.95608728E+02  d E =-.858680E-02  mag=     0.0000
       N       E                     dE             d eps       ncg     rms          rms(c)
DAV:   1    -0.955771481975E+02    0.31580E-01   -0.93230E+00 34088   0.221E+01    0.135E+00
RMM:   2    -0.956212967660E+02   -0.44149E-01   -0.59071E-01 42598   0.480E+00    0.108E+00
RMM:   3    -0.956164757978E+02    0.48210E-02   -0.46021E-02 40053   0.113E+00    0.516E-01
RMM:   4    -0.956137206180E+02    0.27552E-02   -0.56665E-03 36826   0.358E-01    0.273E-01
RMM:   5    -0.956130819011E+02    0.63872E-03   -0.17873E-03 38686   0.181E-01    0.133E-01
RMM:   6    -0.956130484461E+02    0.33455E-04   -0.41019E-04 40015   0.948E-02    0.682E-02
RMM:   7    -0.956130487955E+02   -0.34934E-06   -0.79983E-05 42838   0.400E-02    0.377E-02
RMM:   8    -0.956130504516E+02   -0.16562E-05   -0.23305E-05 37437   0.232E-02    0.109E-02
RMM:   9    -0.956130502374E+02    0.21427E-06   -0.48909E-06 28820   0.108E-02
  28 F= -.95613050E+02 E0= -.95613050E+02  d E =-.432229E-02  mag=     0.0000
       N       E                     dE             d eps       ncg     rms          rms(c)
DAV:   1    -0.955602170700E+02    0.52833E-01   -0.14073E+01 34088   0.271E+01    0.166E+00
RMM:   2    -0.956275404265E+02   -0.67323E-01   -0.89688E-01 42598   0.590E+00    0.134E+00
RMM:   3    -0.956198839280E+02    0.76565E-02   -0.69082E-02 40066   0.139E+00    0.628E-01
RMM:   4    -0.956157827795E+02    0.41011E-02   -0.85218E-03 36895   0.437E-01    0.333E-01
RMM:   5    -0.956148319791E+02    0.95080E-03   -0.27306E-03 38332   0.222E-01    0.162E-01
RMM:   6    -0.956147781275E+02    0.53852E-04   -0.62022E-04 40283   0.116E-01    0.846E-02
RMM:   7    -0.956147787035E+02   -0.57602E-06   -0.11893E-04 43214   0.487E-02    0.466E-02
RMM:   8    -0.956147810522E+02   -0.23487E-05   -0.34294E-05 38093   0.279E-02    0.129E-02
RMM:   9    -0.956147807682E+02    0.28395E-06   -0.73476E-06 32732   0.126E-02
  29 F= -.95614781E+02 E0= -.95614781E+02  d E =-.605282E-02  mag=     0.0000
       N       E                     dE             d eps       ncg     rms          rms(c)
DAV:   1    -0.956026673936E+02    0.12114E-01   -0.17228E+00 37908   0.152E+01    0.992E-01
RMM:   2    -0.956213904655E+02   -0.18723E-01   -0.27361E-01 42862   0.312E+00    0.715E-01
RMM:   3    -0.956185072899E+02    0.28832E-02   -0.33389E-02 39838   0.900E-01    0.400E-01
RMM:   4    -0.956170723602E+02    0.14349E-02   -0.28081E-03 36726   0.279E-01    0.188E-01
RMM:   5    -0.956168061144E+02    0.26625E-03   -0.85845E-04 35608   0.144E-01    0.836E-02
RMM:   6    -0.956167520159E+02    0.54098E-04   -0.21513E-04 38678   0.697E-02    0.417E-02
RMM:   7    -0.956167505861E+02    0.14297E-05   -0.38814E-05 42409   0.304E-02    0.202E-02
RMM:   8    -0.956167515303E+02   -0.94416E-06   -0.59266E-06 34375   0.127E-02
  30 F= -.95616752E+02 E0= -.95616752E+02  d E =-.197076E-02  mag=     0.0000
       N       E                     dE             d eps       ncg     rms          rms(c)
DAV:   1    -0.956119850368E+02    0.47655E-02   -0.61436E-01 37936   0.905E+00    0.592E-01
RMM:   2    -0.956186256767E+02   -0.66406E-02   -0.97383E-02 42854   0.186E+00    0.426E-01
RMM:   3    -0.956176272258E+02    0.99845E-03   -0.11964E-02 39796   0.539E-01    0.239E-01
RMM:   4    -0.956171144044E+02    0.51282E-03   -0.99855E-04 36796   0.167E-01    0.112E-01
RMM:   5    -0.956170201932E+02    0.94211E-04   -0.30750E-04 35503   0.860E-02    0.501E-02
RMM:   6    -0.956170011455E+02    0.19048E-04   -0.77721E-05 38632   0.419E-02    0.250E-02
RMM:   7    -0.956170007915E+02    0.35400E-06   -0.14122E-05 39587   0.184E-02    0.131E-02
RMM:   8    -0.956170011785E+02   -0.38706E-06   -0.24248E-06 21404   0.888E-03
  31 F= -.95617001E+02 E0= -.95617001E+02  d E =-.222041E-02  mag=     0.0000
       N       E                     dE             d eps       ncg     rms          rms(c)
DAV:   1    -0.956085572535E+02    0.84435E-02   -0.67228E-01 41872   0.993E+00    0.444E-01
RMM:   2    -0.956177107401E+02   -0.91535E-02   -0.95494E-02 43069   0.180E+00    0.243E-01
RMM:   3    -0.956180049438E+02   -0.29420E-03   -0.46293E-03 39790   0.325E-01    0.139E-01
RMM:   4    -0.956178224719E+02    0.18247E-03   -0.33028E-04 40954   0.909E-02    0.883E-02
RMM:   5    -0.956177704586E+02    0.52013E-04   -0.25265E-04 37671   0.775E-02    0.574E-02
RMM:   6    -0.956177557209E+02    0.14738E-04   -0.58359E-05 41171   0.391E-02    0.148E-02
RMM:   7    -0.956177552832E+02    0.43766E-06   -0.70368E-06 33396   0.118E-02
  32 F= -.95617755E+02 E0= -.95617755E+02  d E =-.754105E-03  mag=     0.0000
