 vasp.5.4.4.18Apr17-6-g9f103f2a35 (build Nov 08 2022 17:27:33) complex          
  
 executed on             LinuxIFC date 2022.11.22  17:18:32
 running on   16 total cores
 distrk:  each k-point on   16 cores,    1 groups
 distr:  one band on NCORES_PER_BAND=   4 cores,    4 groups


--------------------------------------------------------------------------------------------------------


 INCAR:
 POTCAR:    PAW_PBE Mn_pv 02Aug2007               
 POTCAR:    PAW_PBE O 08Apr2002                   
 POTCAR:    PAW_PBE Mn_pv 02Aug2007               
   VRHFIN =Mn: 3p4s3d                                                           
   LEXCH  = PE                                                                  
   EATOM  =  2025.2664 eV,  148.8529 Ry                                         
                                                                                
   TITEL  = PAW_PBE Mn_pv 02Aug2007                                             
   LULTRA =        F    use ultrasoft PP ?                                      
   IUNSCR =        1    unscreen: 0-lin 1-nonlin 2-no                           
   RPACOR =    2.080    partial core radius                                     
   POMASS =   54.938; ZVAL   =   13.000    mass and valenz                      
   RCORE  =    2.300    outmost cutoff radius                                   
   RWIGS  =    2.500; RWIGS  =    1.323    wigner-seitz radius (au A)           
   ENMAX  =  269.864; ENMIN  =  202.398 eV                                      
   ICORE  =        3    local potential                                         
   LCOR   =        T    correct aug charges                                     
   LPAW   =        T    paw PP                                                  
   EAUG   =  569.085                                                            
   DEXC   =    0.000                                                            
   RMAX   =    2.343    core radius for proj-oper                               
   RAUG   =    1.300    factor for augmentation sphere                          
   RDEP   =    2.338    radius for radial grids                                 
   RDEPT  =    1.798    core radius for aug-charge                              
                                                                                
   Atomic configuration                                                         
    8 entries                                                                   
     n  l   j            E        occ.                                          
     1  0  0.50     -6424.8287   2.0000                                         
     2  0  0.50      -739.1154   2.0000                                         
     2  1  1.50      -625.3949   6.0000                                         
     3  0  0.50       -81.6100   2.0000                                         
     3  1  1.50       -50.4667   6.0000                                         
     3  2  2.50        -3.3745   6.0000                                         
     4  0  0.50        -4.1331   1.0000                                         
     4  3  2.50        -1.3606   0.0000                                         
   Description                                                                  
     l       E           TYP  RCUT    TYP  RCUT                                 
     1    -50.4666628     23  2.000                                             
     1     -1.3605826     23  2.000                                             
     2     -3.3744729     23  2.300                                             
     2     -4.7350555     23  2.300                                             
     0     -4.1331431     23  2.300                                             
     0      7.6656591     23  2.300                                             
     3      9.5240782     23  2.300                                             
  local pseudopotential read in
  partial core-charges read in
  partial kinetic energy density read in
  atomic valenz-charges read in
  non local Contribution for L=           1  read in
    real space projection operators read in
  non local Contribution for L=           1  read in
    real space projection operators read in
  non local Contribution for L=           2  read in
    real space projection operators read in
  non local Contribution for L=           2  read in
    real space projection operators read in
  non local Contribution for L=           0  read in
    real space projection operators read in
  non local Contribution for L=           0  read in
    real space projection operators read in
    PAW grid and wavefunctions read in
 
   number of l-projection  operators is LMAX  =           6
   number of lm-projection operators is LMMAX =          18
 
 POTCAR:    PAW_PBE O 08Apr2002                   
   VRHFIN =O: s2p4                                                              
   LEXCH  = PE                                                                  
   EATOM  =   432.3788 eV,   31.7789 Ry                                         
                                                                                
   TITEL  = PAW_PBE O 08Apr2002                                                 
   LULTRA =        F    use ultrasoft PP ?                                      
   IUNSCR =        1    unscreen: 0-lin 1-nonlin 2-no                           
   RPACOR =    1.200    partial core radius                                     
   POMASS =   16.000; ZVAL   =    6.000    mass and valenz                      
   RCORE  =    1.520    outmost cutoff radius                                   
   RWIGS  =    1.550; RWIGS  =    0.820    wigner-seitz radius (au A)           
   ENMAX  =  400.000; ENMIN  =  300.000 eV                                      
   ICORE  =        2    local potential                                         
   LCOR   =        T    correct aug charges                                     
   LPAW   =        T    paw PP                                                  
   EAUG   =  605.392                                                            
   DEXC   =    0.000                                                            
   RMAX   =    1.553    core radius for proj-oper                               
   RAUG   =    1.300    factor for augmentation sphere                          
   RDEP   =    1.550    radius for radial grids                                 
   RDEPT  =    1.329    core radius for aug-charge                              
                                                                                
   Atomic configuration                                                         
    4 entries                                                                   
     n  l   j            E        occ.                                          
     1  0  0.50      -514.6923   2.0000                                         
     2  0  0.50       -23.9615   2.0000                                         
     2  1  0.50        -9.0305   4.0000                                         
     3  2  1.50        -9.5241   0.0000                                         
   Description                                                                  
     l       E           TYP  RCUT    TYP  RCUT                                 
     0    -23.9615318     23  1.200                                             
     0     -9.5240782     23  1.200                                             
     1     -9.0304911     23  1.520                                             
     1      8.1634956     23  1.520                                             
     2     -9.5240782      7  1.500                                             
  local pseudopotential read in
  partial core-charges read in
  partial kinetic energy density read in
  kinetic energy density of atom read in
  atomic valenz-charges read in
  non local Contribution for L=           0  read in
    real space projection operators read in
  non local Contribution for L=           0  read in
    real space projection operators read in
  non local Contribution for L=           1  read in
    real space projection operators read in
  non local Contribution for L=           1  read in
    real space projection operators read in
    PAW grid and wavefunctions read in
 
   number of l-projection  operators is LMAX  =           4
   number of lm-projection operators is LMMAX =           8
 
 Optimization of the real space projectors (new method)

 maximal supplied QI-value         = 16.25
 optimisation between [QCUT,QGAM] = [ 11.54, 23.24] = [ 37.28,151.24] Ry 
 Optimized for a Real-space Cutoff    1.45 Angstroem

   l    n(q)    QCUT    max X(q) W(low)/X(q) W(high)/X(q)  e(spline) 
   1     10    11.539     3.658    0.56E-04    0.12E-03    0.13E-06
   1     10    11.539     5.612    0.11E-03    0.23E-03    0.24E-06
   2      9    11.539    55.373    0.45E-04    0.92E-04    0.22E-06
   2      9    11.539    50.863    0.47E-04    0.95E-04    0.22E-06
   0     10    11.539    79.536    0.46E-04    0.27E-04    0.11E-06
   0     10    11.539    38.668    0.38E-04    0.25E-04    0.10E-06
 Optimization of the real space projectors (new method)

 maximal supplied QI-value         = 24.76
 optimisation between [QCUT,QGAM] = [ 11.64, 23.27] = [ 37.91,151.63] Ry 
 Optimized for a Real-space Cutoff    1.14 Angstroem

   l    n(q)    QCUT    max X(q) W(low)/X(q) W(high)/X(q)  e(spline) 
   0      8    11.635    20.381    0.10E-03    0.33E-03    0.24E-06
   0      8    11.635    15.268    0.11E-03    0.35E-03    0.26E-06
   1      7    11.635     5.964    0.24E-03    0.31E-03    0.30E-06
   1      7    11.635     5.382    0.22E-03    0.25E-03    0.26E-06
  PAW_PBE Mn_pv 02Aug2007               :
 energy of atom  1       EATOM=-2025.2664
 kinetic energy error for atom=    0.0058 (will be added to EATOM!!)
  PAW_PBE O 08Apr2002                   :
 energy of atom  2       EATOM= -432.3788
 kinetic energy error for atom=    0.0208 (will be added to EATOM!!)
 
 
 POSCAR: Mn4 O8                                  
  positions in direct lattice
  velocities in cartesian coordinates
 exchange correlation table for  LEXCH =        8
   RHO(1)=    0.500       N(1)  =     2000
   RHO(2)=  100.500       N(2)  =     4000

 VTST: version 3.2, (02/03/18)

 CHAIN: initializing optimizer
 
 OPT: Using VASP Conjugate-Gradient optimizer
 CHAIN: Read ICHAIN            0
 
 POSCAR: Mn4 O8                                  
  positions in direct lattice
  velocities in cartesian coordinates
 


--------------------------------------------------------------------------------------------------------


 ion  position               nearest neighbor table
   1  0.250  0.936  0.877-   7 1.77  12 1.78  12 1.78   6 1.96   6 1.96  10 2.29   2 2.80   2 2.80

   2  0.750  0.064  0.123-   6 1.77   9 1.78   9 1.78   7 1.96   7 1.96  11 2.29   1 2.80   1 2.80

   3  0.750  0.436  0.623-   8 1.77  10 1.78  10 1.78   5 1.96   5 1.96  12 2.29   4 2.80   4 2.80

   4  0.250  0.564  0.377-   5 1.77  11 1.78  11 1.78   8 1.96   8 1.96   9 2.29   3 2.80   3 2.80

   5  0.250  0.684  0.555-   4 1.77   3 1.96   3 1.96
   6  0.750  0.184  0.945-   2 1.77   1 1.96   1 1.96
   7  0.250  0.816  0.055-   1 1.77   2 1.96   2 1.96
   8  0.750  0.316  0.445-   3 1.77   4 1.96   4 1.96
   9  0.250  0.225  0.198-   2 1.78   2 1.78   4 2.29
  10  0.250  0.275  0.698-   3 1.78   3 1.78   1 2.29
  11  0.750  0.725  0.302-   4 1.78   4 1.78   2 2.29
  12  0.750  0.775  0.802-   1 1.78   1 1.78   3 2.29
 

IMPORTANT INFORMATION: All symmetrisations will be switched off!
NOSYMM: (Re-)initialisation of all symmetry stuff for point group C_1.

 
 

Automatic generation of k-mesh.
 generate k-points for:   10    7    4
Space group operators:
 irot       det(A)        alpha          n_x          n_y          n_z        tau_x        tau_y        tau_z
    1     1.000000     0.000000     1.000000     0.000000     0.000000     0.000000     0.000000     0.000000
 
 Subroutine IBZKPT returns following result:
 ===========================================
 
 Found    142 irreducible k-points:
 
 Following reciprocal coordinates:
            Coordinates               Weight
  0.000000  0.000000  0.000000      1.000000
  0.100000 -0.000000  0.000000      2.000000
  0.200000  0.000000 -0.000000      2.000000
  0.300000 -0.000000  0.000000      2.000000
  0.400000  0.000000 -0.000000      2.000000
  0.500000 -0.000000 -0.000000      1.000000
  0.000000  0.142857  0.000000      2.000000
  0.100000  0.142857  0.000000      2.000000
  0.200000  0.142857  0.000000      2.000000
  0.300000  0.142857  0.000000      2.000000
  0.400000  0.142857  0.000000      2.000000
  0.500000  0.142857  0.000000      2.000000
 -0.400000  0.142857  0.000000      2.000000
 -0.300000  0.142857  0.000000      2.000000
 -0.200000  0.142857  0.000000      2.000000
 -0.100000  0.142857 -0.000000      2.000000
  0.000000  0.285714  0.000000      2.000000
  0.100000  0.285714 -0.000000      2.000000
  0.200000  0.285714  0.000000      2.000000
  0.300000  0.285714  0.000000      2.000000
  0.400000  0.285714  0.000000      2.000000
  0.500000  0.285714  0.000000      2.000000
 -0.400000  0.285714 -0.000000      2.000000
 -0.300000  0.285714  0.000000      2.000000
 -0.200000  0.285714 -0.000000      2.000000
 -0.100000  0.285714  0.000000      2.000000
  0.000000  0.428571  0.000000      2.000000
  0.100000  0.428571 -0.000000      2.000000
  0.200000  0.428571  0.000000      2.000000
  0.300000  0.428571  0.000000      2.000000
  0.400000  0.428571  0.000000      2.000000
  0.500000  0.428571  0.000000      2.000000
 -0.400000  0.428571 -0.000000      2.000000
 -0.300000  0.428571 -0.000000      2.000000
 -0.200000  0.428571 -0.000000      2.000000
 -0.100000  0.428571  0.000000      2.000000
  0.000000  0.000000  0.250000      2.000000
  0.100000  0.000000  0.250000      2.000000
  0.200000  0.000000  0.250000      2.000000
  0.300000  0.000000  0.250000      2.000000
  0.400000 -0.000000  0.250000      2.000000
  0.500000  0.000000  0.250000      2.000000
 -0.400000  0.000000  0.250000      2.000000
 -0.300000  0.000000  0.250000      2.000000
 -0.200000  0.000000  0.250000      2.000000
 -0.100000  0.000000  0.250000      2.000000
  0.000000  0.142857  0.250000      2.000000
  0.100000  0.142857  0.250000      2.000000
  0.200000  0.142857  0.250000      2.000000
  0.300000  0.142857  0.250000      2.000000
  0.400000  0.142857  0.250000      2.000000
  0.500000  0.142857  0.250000      2.000000
 -0.400000  0.142857  0.250000      2.000000
 -0.300000  0.142857  0.250000      2.000000
 -0.200000  0.142857  0.250000      2.000000
 -0.100000  0.142857  0.250000      2.000000
  0.000000  0.285714  0.250000      2.000000
  0.100000  0.285714  0.250000      2.000000
  0.200000  0.285714  0.250000      2.000000
  0.300000  0.285714  0.250000      2.000000
  0.400000  0.285714  0.250000      2.000000
  0.500000  0.285714  0.250000      2.000000
 -0.400000  0.285714  0.250000      2.000000
 -0.300000  0.285714  0.250000      2.000000
 -0.200000  0.285714  0.250000      2.000000
 -0.100000  0.285714  0.250000      2.000000
  0.000000  0.428571  0.250000      2.000000
  0.100000  0.428571  0.250000      2.000000
  0.200000  0.428571  0.250000      2.000000
  0.300000  0.428571  0.250000      2.000000
  0.400000  0.428571  0.250000      2.000000
  0.500000  0.428571  0.250000      2.000000
 -0.400000  0.428571  0.250000      2.000000
 -0.300000  0.428571  0.250000      2.000000
 -0.200000  0.428571  0.250000      2.000000
 -0.100000  0.428571  0.250000      2.000000
  0.000000 -0.428571  0.250000      2.000000
  0.100000 -0.428571  0.250000      2.000000
  0.200000 -0.428571  0.250000      2.000000
  0.300000 -0.428571  0.250000      2.000000
  0.400000 -0.428571  0.250000      2.000000
  0.500000 -0.428571  0.250000      2.000000
 -0.400000 -0.428571  0.250000      2.000000
 -0.300000 -0.428571  0.250000      2.000000
 -0.200000 -0.428571  0.250000      2.000000
 -0.100000 -0.428571  0.250000      2.000000
  0.000000 -0.285714  0.250000      2.000000
  0.100000 -0.285714  0.250000      2.000000
  0.200000 -0.285714  0.250000      2.000000
  0.300000 -0.285714  0.250000      2.000000
  0.400000 -0.285714  0.250000      2.000000
  0.500000 -0.285714  0.250000      2.000000
 -0.400000 -0.285714  0.250000      2.000000
 -0.300000 -0.285714  0.250000      2.000000
 -0.200000 -0.285714  0.250000      2.000000
 -0.100000 -0.285714  0.250000      2.000000
  0.000000 -0.142857  0.250000      2.000000
  0.100000 -0.142857  0.250000      2.000000
  0.200000 -0.142857  0.250000      2.000000
  0.300000 -0.142857  0.250000      2.000000
  0.400000 -0.142857  0.250000      2.000000
  0.500000 -0.142857  0.250000      2.000000
 -0.400000 -0.142857  0.250000      2.000000
 -0.300000 -0.142857  0.250000      2.000000
 -0.200000 -0.142857  0.250000      2.000000
 -0.100000 -0.142857  0.250000      2.000000
  0.000000  0.000000  0.500000      1.000000
  0.100000  0.000000  0.500000      2.000000
  0.200000  0.000000  0.500000      2.000000
  0.300000  0.000000  0.500000      2.000000
  0.400000  0.000000  0.500000      2.000000
  0.500000  0.000000  0.500000      1.000000
  0.000000  0.142857  0.500000      2.000000
  0.100000  0.142857  0.500000      2.000000
  0.200000  0.142857  0.500000      2.000000
  0.300000  0.142857  0.500000      2.000000
  0.400000  0.142857  0.500000      2.000000
  0.500000  0.142857  0.500000      2.000000
 -0.400000  0.142857  0.500000      2.000000
 -0.300000  0.142857  0.500000      2.000000
 -0.200000  0.142857  0.500000      2.000000
 -0.100000  0.142857  0.500000      2.000000
  0.000000  0.285714  0.500000      2.000000
  0.100000  0.285714  0.500000      2.000000
  0.200000  0.285714  0.500000      2.000000
  0.300000  0.285714  0.500000      2.000000
  0.400000  0.285714  0.500000      2.000000
  0.500000  0.285714  0.500000      2.000000
 -0.400000  0.285714  0.500000      2.000000
 -0.300000  0.285714  0.500000      2.000000
 -0.200000  0.285714  0.500000      2.000000
 -0.100000  0.285714  0.500000      2.000000
  0.000000  0.428571  0.500000      2.000000
  0.100000  0.428571  0.500000      2.000000
  0.200000  0.428571  0.500000      2.000000
  0.300000  0.428571  0.500000      2.000000
  0.400000  0.428571  0.500000      2.000000
  0.500000  0.428571  0.500000      2.000000
 -0.400000  0.428571  0.500000      2.000000
 -0.300000  0.428571  0.500000      2.000000
 -0.200000  0.428571  0.500000      2.000000
 -0.100000  0.428571  0.500000      2.000000
 
 Following cartesian coordinates:
            Coordinates               Weight
  0.000000  0.000000  0.000000      1.000000
  0.034290  0.000000 -0.000000      2.000000
  0.068579  0.000000 -0.000000      2.000000
  0.102869  0.000000 -0.000000      2.000000
  0.137159  0.000000 -0.000000      2.000000
  0.171448  0.000000 -0.000000      1.000000
  0.000000  0.031185 -0.000001      2.000000
  0.034290  0.031185 -0.000001      2.000000
  0.068579  0.031185 -0.000001      2.000000
  0.102869  0.031185 -0.000001      2.000000
  0.137159  0.031185 -0.000001      2.000000
  0.171448  0.031185 -0.000001      2.000000
 -0.137159  0.031185 -0.000001      2.000000
 -0.102869  0.031185 -0.000001      2.000000
 -0.068579  0.031185 -0.000001      2.000000
 -0.034290  0.031185 -0.000001      2.000000
  0.000000  0.062370 -0.000002      2.000000
  0.034290  0.062370 -0.000002      2.000000
  0.068579  0.062370 -0.000002      2.000000
  0.102869  0.062370 -0.000002      2.000000
  0.137159  0.062370 -0.000002      2.000000
  0.171448  0.062370 -0.000002      2.000000
 -0.137159  0.062370 -0.000002      2.000000
 -0.102869  0.062370 -0.000002      2.000000
 -0.068579  0.062370 -0.000002      2.000000
 -0.034290  0.062370 -0.000002      2.000000
  0.000000  0.093555 -0.000003      2.000000
  0.034290  0.093555 -0.000003      2.000000
  0.068579  0.093555 -0.000003      2.000000
  0.102869  0.093555 -0.000003      2.000000
  0.137159  0.093555 -0.000003      2.000000
  0.171448  0.093555 -0.000003      2.000000
 -0.137159  0.093555 -0.000003      2.000000
 -0.102869  0.093555 -0.000003      2.000000
 -0.068579  0.093555 -0.000003      2.000000
 -0.034290  0.093555 -0.000003      2.000000
  0.000000 -0.000001  0.026499      2.000000
  0.034290 -0.000001  0.026499      2.000000
  0.068579 -0.000001  0.026499      2.000000
  0.102869 -0.000001  0.026499      2.000000
  0.137159 -0.000001  0.026499      2.000000
  0.171448 -0.000001  0.026499      2.000000
 -0.137159 -0.000001  0.026499      2.000000
 -0.102869 -0.000001  0.026499      2.000000
 -0.068579 -0.000001  0.026499      2.000000
 -0.034290 -0.000001  0.026499      2.000000
  0.000000  0.031184  0.026498      2.000000
  0.034290  0.031184  0.026498      2.000000
  0.068579  0.031184  0.026498      2.000000
  0.102869  0.031184  0.026498      2.000000
  0.137159  0.031184  0.026498      2.000000
  0.171448  0.031184  0.026498      2.000000
 -0.137159  0.031184  0.026498      2.000000
 -0.102869  0.031184  0.026498      2.000000
 -0.068579  0.031184  0.026498      2.000000
 -0.034290  0.031184  0.026498      2.000000
  0.000000  0.062369  0.026497      2.000000
  0.034290  0.062369  0.026497      2.000000
  0.068579  0.062369  0.026497      2.000000
  0.102869  0.062369  0.026497      2.000000
  0.137159  0.062369  0.026497      2.000000
  0.171448  0.062369  0.026497      2.000000
 -0.137159  0.062369  0.026497      2.000000
 -0.102869  0.062369  0.026497      2.000000
 -0.068579  0.062369  0.026497      2.000000
 -0.034290  0.062369  0.026497      2.000000
  0.000000  0.093554  0.026496      2.000000
  0.034290  0.093554  0.026496      2.000000
  0.068579  0.093554  0.026496      2.000000
  0.102869  0.093554  0.026496      2.000000
  0.137159  0.093554  0.026496      2.000000
  0.171448  0.093554  0.026496      2.000000
 -0.137159  0.093554  0.026496      2.000000
 -0.102869  0.093554  0.026496      2.000000
 -0.068579  0.093554  0.026496      2.000000
 -0.034290  0.093554  0.026496      2.000000
  0.000000 -0.093556  0.026502      2.000000
  0.034290 -0.093556  0.026502      2.000000
  0.068579 -0.093556  0.026502      2.000000
  0.102869 -0.093556  0.026502      2.000000
  0.137159 -0.093556  0.026502      2.000000
  0.171448 -0.093556  0.026502      2.000000
 -0.137159 -0.093556  0.026502      2.000000
 -0.102869 -0.093556  0.026502      2.000000
 -0.068579 -0.093556  0.026502      2.000000
 -0.034290 -0.093556  0.026502      2.000000
  0.000000 -0.062371  0.026501      2.000000
  0.034290 -0.062371  0.026501      2.000000
  0.068579 -0.062371  0.026501      2.000000
  0.102869 -0.062371  0.026501      2.000000
  0.137159 -0.062371  0.026501      2.000000
  0.171448 -0.062371  0.026501      2.000000
 -0.137159 -0.062371  0.026501      2.000000
 -0.102869 -0.062371  0.026501      2.000000
 -0.068579 -0.062371  0.026501      2.000000
 -0.034290 -0.062371  0.026501      2.000000
  0.000000 -0.031186  0.026500      2.000000
  0.034290 -0.031186  0.026500      2.000000
  0.068579 -0.031186  0.026500      2.000000
  0.102869 -0.031186  0.026500      2.000000
  0.137159 -0.031186  0.026500      2.000000
  0.171448 -0.031186  0.026500      2.000000
 -0.137159 -0.031186  0.026500      2.000000
 -0.102869 -0.031186  0.026500      2.000000
 -0.068579 -0.031186  0.026500      2.000000
 -0.034290 -0.031186  0.026500      2.000000
  0.000000 -0.000002  0.052998      1.000000
  0.034290 -0.000002  0.052998      2.000000
  0.068579 -0.000002  0.052998      2.000000
  0.102869 -0.000002  0.052998      2.000000
  0.137159 -0.000002  0.052998      2.000000
  0.171448 -0.000002  0.052998      1.000000
  0.000000  0.031183  0.052997      2.000000
  0.034290  0.031183  0.052997      2.000000
  0.068579  0.031183  0.052997      2.000000
  0.102869  0.031183  0.052997      2.000000
  0.137159  0.031183  0.052997      2.000000
  0.171448  0.031183  0.052997      2.000000
 -0.137159  0.031183  0.052997      2.000000
 -0.102869  0.031183  0.052997      2.000000
 -0.068579  0.031183  0.052997      2.000000
 -0.034290  0.031183  0.052997      2.000000
  0.000000  0.062368  0.052996      2.000000
  0.034290  0.062368  0.052996      2.000000
  0.068579  0.062368  0.052996      2.000000
  0.102869  0.062368  0.052996      2.000000
  0.137159  0.062368  0.052996      2.000000
  0.171448  0.062368  0.052996      2.000000
 -0.137159  0.062368  0.052996      2.000000
 -0.102869  0.062368  0.052996      2.000000
 -0.068579  0.062368  0.052996      2.000000
 -0.034290  0.062368  0.052996      2.000000
  0.000000  0.093553  0.052995      2.000000
  0.034290  0.093553  0.052995      2.000000
  0.068579  0.093553  0.052995      2.000000
  0.102869  0.093553  0.052995      2.000000
  0.137159  0.093553  0.052995      2.000000
  0.171448  0.093553  0.052995      2.000000
 -0.137159  0.093553  0.052995      2.000000
 -0.102869  0.093553  0.052995      2.000000
 -0.068579  0.093553  0.052995      2.000000
 -0.034290  0.093553  0.052995      2.000000
 


--------------------------------------------------------------------------------------------------------




 Dimension of arrays:
   k-points           NKPTS =    142   k-points in BZ     NKDIM =    142   number of bands    NBANDS=     60
   number of dos      NEDOS =    301   number of ions     NIONS =     12
   non local maximal  LDIM  =      6   non local SUM 2l+1 LMDIM =     18
   total plane-waves  NPLWV =  60480
   max r-space proj   IRMAX =   6124   max aug-charges    IRDMAX=  14758
   dimension x,y,z NGX =    24 NGY =   36 NGZ =   70
   dimension x,y,z NGXF=    48 NGYF=   72 NGZF=  140
   support grid    NGXF=    48 NGYF=   72 NGZF=  140
   ions per type =               4   8
   NGX,Y,Z   is equivalent  to a cutoff of  13.68, 13.06, 12.33 a.u.
   NGXF,Y,Z  is equivalent  to a cutoff of  27.36, 26.13, 24.67 a.u.

 SYSTEM =  unknown system                          
 POSCAR =  Mn4 O8                                  

 Startparameter for this run:
   NWRITE =      2    write-flag & timer
   PREC   = accura    normal or accurate (medium, high low for compatibility)
   ISTART =      1    job   : 0-new  1-cont  2-samecut
   ICHARG =      0    charge: 1-file 2-atom 10-const
   ISPIN  =      2    spin polarized calculation?
   LNONCOLLINEAR =      F non collinear calculations
   LSORBIT =      F    spin-orbit coupling
   INIWAV =      1    electr: 0-lowe 1-rand  2-diag
   LASPH  =      T    aspherical Exc in radial PAW
   METAGGA=      F    non-selfconsistent MetaGGA calc.

 Electronic Relaxation 1
   ENCUT  =  520.0 eV  38.22 Ry    6.18 a.u.   5.42  8.52 17.54*2*pi/ulx,y,z
   ENINI  =  520.0     initial cutoff
   ENAUG  = 1040.0 eV  augmentation charge cutoff
   NELM   =    100;   NELMIN=  2; NELMDL=  0     # of ELM steps 
   EDIFF  = 0.1E-05   stopping-criterion for ELM
   LREAL  =      T    real-space projection
   NLSPLINE    = F    spline interpolate recip. space projectors
   LCOMPAT=      F    compatible to vasp.4.4
   GGA_COMPAT  = T    GGA compatible to vasp.4.4-vasp.4.6
   LMAXPAW     = -100 max onsite density
   LMAXMIX     =    4 max onsite mixed and CHGCAR
   VOSKOWN=      0    Vosko Wilk Nusair interpolation
   ROPT   =   -0.00025  -0.00025
 Ionic relaxation
   EDIFFG = -.3E-01   stopping-criterion for IOM
   NSW    =    199    number of steps for IOM
   NBLOCK =      1;   KBLOCK =    199    inner block; outer block 
   IBRION =      2    ionic relax: 0-MD 1-quasi-New 2-CG
   NFREE  =      1    steps in history (QN), initial steepest desc. (CG)
   ISIF   =      3    stress and relaxation
   IWAVPR =     11    prediction:  0-non 1-charg 2-wave 3-comb
   ISYM   =      0    0-nonsym 1-usesym 2-fastsym
   LCORR  =      T    Harris-Foulkes like correction to forces

   POTIM  = 0.5000    time-step for ionic-motion
   TEIN   =    0.0    initial temperature
   TEBEG  =    0.0;   TEEND  =   0.0 temperature during run
   SMASS  =  -3.00    Nose mass-parameter (am)
   estimated Nose-frequenzy (Omega)   =  0.10E-29 period in steps =****** mass=  -0.194E-27a.u.
   SCALEE = 1.0000    scale energy and forces
   NPACO  =    256;   APACO  = 16.0  distance and # of slots for P.C.
   PSTRESS=    0.0 pullay stress

  Mass of Ions in am
   POMASS =  54.94 16.00
  Ionic Valenz
   ZVAL   =  13.00  6.00
  Atomic Wigner-Seitz radii
   RWIGS  =  -1.00 -1.00
  virtual crystal weights 
   VCA    =   1.00  1.00
   NELECT =     100.0000    total number of electrons
   NUPDOWN=      -1.0000    fix difference up-down

 DOS related values:
   EMIN   =  10.00;   EMAX   =-10.00  energy-range for DOS
   EFERMI =   0.00
   ISMEAR =     0;   SIGMA  =   0.01  broadening in eV -4-tet -1-fermi 0-gaus

 Electronic relaxation 2 (details)
   IALGO  =     68    algorithm
   LDIAG  =      T    sub-space diagonalisation (order eigenvalues)
   LSUBROT=      F    optimize rotation matrix (better conditioning)
   TURBO    =      0    0=normal 1=particle mesh
   IRESTART =      0    0=no restart 2=restart with 2 vectors
   NREBOOT  =      0    no. of reboots
   NMIN     =      0    reboot dimension
   EREF     =   0.00    reference energy to select bands
   IMIX   =      4    mixing-type and parameters
     AMIX     =   0.40;   BMIX     =  1.00
     AMIX_MAG =   1.60;   BMIX_MAG =  1.00
     AMIN     =   0.10
     WC   =   100.;   INIMIX=   1;  MIXPRE=   1;  MAXMIX= -45

 Intra band minimization:
   WEIMIN = 0.0010     energy-eigenvalue tresh-hold
   EBREAK =  0.42E-08  absolut break condition
   DEPER  =   0.30     relativ break condition  

   TIME   =   0.40     timestep for ELM

  volume/ion in A,a.u.               =      10.50        70.88
  Fermi-wavevector in a.u.,A,eV,Ry     =   1.515557  2.863987 31.251390  2.296912
  Thomas-Fermi vector in A             =   2.625065
 
 Write flags
   LWAVE        =      T    write WAVECAR
   LDOWNSAMPLE  =      F    k-point downsampling of WAVECAR
   LCHARG       =      T    write CHGCAR
   LVTOT        =      F    write LOCPOT, total local potential
   LVHAR        =      F    write LOCPOT, Hartree potential only
   LELF         =      F    write electronic localiz. function (ELF)
   LORBIT       =     11    0 simple, 1 ext, 2 COOP (PROOUT), +10 PAW based schemes


 Dipole corrections
   LMONO  =      F    monopole corrections only (constant potential shift)
   LDIPOL =      F    correct potential (dipole corrections)
   IDIPOL =      0    1-x, 2-y, 3-z, 4-all directions 
   EPSILON=  1.0000000 bulk dielectric constant

 Exchange correlation treatment:
   GGA     =    PE    GGA type
   LEXCH   =     8    internal setting for exchange type
   VOSKOWN=      0    Vosko Wilk Nusair interpolation
   LHFCALC =     F    Hartree Fock is set to
   LHFONE  =     F    Hartree Fock one center treatment
   AEXX    =    0.0000 exact exchange contribution

 Linear response parameters
   LEPSILON=     F    determine dielectric tensor
   LRPA    =     F    only Hartree local field effects (RPA)
   LNABLA  =     F    use nabla operator in PAW spheres
   LVEL    =     F    velocity operator in full k-point grid
   LINTERFAST=   F  fast interpolation
   KINTER  =     0    interpolate to denser k-point grid
   CSHIFT  =0.1000    complex shift for real part using Kramers Kronig
   OMEGAMAX=  -1.0    maximum frequency
   DEG_THRESHOLD= 0.2000000E-02 threshold for treating states as degnerate
   RTIME   =   -0.100 relaxation time in fs
  (WPLASMAI=    0.000 imaginary part of plasma frequency in eV, 0.658/RTIME)
   DFIELD  = 0.0000000 0.0000000 0.0000000 field for delta impulse in time
 
 Orbital magnetization related:
   ORBITALMAG=     F  switch on orbital magnetization
   LCHIMAG   =     F  perturbation theory with respect to B field
   DQ        =  0.001000  dq finite difference perturbation B field
   LLRAUG    =     F  two centre corrections for induced B field



--------------------------------------------------------------------------------------------------------


 conjugate gradient relaxation of ions
 charge density and potential will be updated during run
 spin polarized calculation
 RMM-DIIS sequential band-by-band and
  variant of blocked Davidson during initial phase
 perform sub-space diagonalisation
    before iterative eigenvector-optimisation
 modified Broyden-mixing scheme, WC =      100.0
 initial mixing is a Kerker type mixing with AMIX =  0.4000 and BMIX =      1.0000
 Hartree-type preconditioning will be used
 using additional bands           10
 real space projection scheme for non local part
 use partial core corrections
 calculate Harris-corrections to forces 
   (improved forces if not selfconsistent)
 use gradient corrections 
 use of overlap-Matrix (Vanderbilt PP)
 Gauss-broadening in eV      SIGMA  =   0.01


--------------------------------------------------------------------------------------------------------


  energy-cutoff  :      520.00
  volume of cell :      126.04
      direct lattice vectors                 reciprocal lattice vectors
     2.916331000  0.000000000  0.000000000     0.342896605  0.000000075 -0.000000073
    -0.000001000  4.580966000  0.000145000     0.000000000  0.218294570 -0.000006941
     0.000002000  0.000300000  9.434393000     0.000000000 -0.000003355  0.105995161

  length of vectors
     2.916331000  4.580966002  9.434393005     0.342896605  0.218294570  0.105995161


 
 old parameters found on file WAVECAR:
  energy-cutoff  :      400.00
  volume of cell :      126.04
      direct lattice vectors                 reciprocal lattice vectors
     2.916331000  0.000000000  0.000000000     0.342896605  0.000000075 -0.000000073
    -0.000001000  4.580966000  0.000145000     0.000000000  0.218294570 -0.000006941
     0.000002000  0.000300000  9.434393000     0.000000000 -0.000003355  0.105995161

  length of vectors

 
 k-points in units of 2pi/SCALE and weight: read from INCAR                         
   0.00000000  0.00000000  0.00000000       0.004
   0.03428966  0.00000001 -0.00000001       0.007
   0.06857932  0.00000001 -0.00000001       0.007
   0.10286898  0.00000002 -0.00000002       0.007
   0.13715864  0.00000003 -0.00000003       0.007
   0.17144830  0.00000004 -0.00000004       0.004
   0.00000000  0.03118494 -0.00000099       0.007
   0.03428966  0.03118495 -0.00000100       0.007
   0.06857932  0.03118495 -0.00000101       0.007
   0.10286898  0.03118496 -0.00000101       0.007
   0.13715864  0.03118497 -0.00000102       0.007
   0.17144830  0.03118498 -0.00000103       0.007
  -0.13715864  0.03118491 -0.00000096       0.007
  -0.10286898  0.03118492 -0.00000097       0.007
  -0.06857932  0.03118492 -0.00000098       0.007
  -0.03428966  0.03118493 -0.00000098       0.007
   0.00000000  0.06236988 -0.00000198       0.007
   0.03428966  0.06236988 -0.00000199       0.007
   0.06857932  0.06236989 -0.00000200       0.007
   0.10286898  0.06236990 -0.00000201       0.007
   0.13715864  0.06236991 -0.00000201       0.007
   0.17144830  0.06236991 -0.00000202       0.007
  -0.13715864  0.06236985 -0.00000195       0.007
  -0.10286898  0.06236985 -0.00000196       0.007
  -0.06857932  0.06236986 -0.00000197       0.007
  -0.03428966  0.06236987 -0.00000198       0.007
   0.00000000  0.09355482 -0.00000297       0.007
   0.03428966  0.09355482 -0.00000298       0.007
   0.06857932  0.09355483 -0.00000299       0.007
   0.10286898  0.09355484 -0.00000300       0.007
   0.13715864  0.09355485 -0.00000300       0.007
   0.17144830  0.09355485 -0.00000301       0.007
  -0.13715864  0.09355479 -0.00000295       0.007
  -0.10286898  0.09355479 -0.00000295       0.007
  -0.06857932  0.09355480 -0.00000296       0.007
  -0.03428966  0.09355481 -0.00000297       0.007
   0.00000000 -0.00000084  0.02649879       0.007
   0.03428966 -0.00000083  0.02649878       0.007
   0.06857932 -0.00000082  0.02649878       0.007
   0.10286898 -0.00000082  0.02649877       0.007
   0.13715864 -0.00000081  0.02649876       0.007
   0.17144830 -0.00000080  0.02649875       0.007
  -0.13715864 -0.00000087  0.02649882       0.007
  -0.10286898 -0.00000086  0.02649881       0.007
  -0.06857932 -0.00000085  0.02649880       0.007
  -0.03428966 -0.00000085  0.02649880       0.007
   0.00000000  0.03118410  0.02649780       0.007
   0.03428966  0.03118411  0.02649779       0.007
   0.06857932  0.03118411  0.02649778       0.007
   0.10286898  0.03118412  0.02649778       0.007
   0.13715864  0.03118413  0.02649777       0.007
   0.17144830  0.03118414  0.02649776       0.007
  -0.13715864  0.03118407  0.02649783       0.007
  -0.10286898  0.03118408  0.02649782       0.007
  -0.06857932  0.03118408  0.02649781       0.007
  -0.03428966  0.03118409  0.02649781       0.007
   0.00000000  0.06236904  0.02649681       0.007
   0.03428966  0.06236905  0.02649680       0.007
   0.06857932  0.06236905  0.02649679       0.007
   0.10286898  0.06236906  0.02649679       0.007
   0.13715864  0.06236907  0.02649678       0.007
   0.17144830  0.06236908  0.02649677       0.007
  -0.13715864  0.06236901  0.02649684       0.007
  -0.10286898  0.06236902  0.02649683       0.007
  -0.06857932  0.06236902  0.02649682       0.007
  -0.03428966  0.06236903  0.02649681       0.007
   0.00000000  0.09355398  0.02649582       0.007
   0.03428966  0.09355398  0.02649581       0.007
   0.06857932  0.09355399  0.02649580       0.007
   0.10286898  0.09355400  0.02649579       0.007
   0.13715864  0.09355401  0.02649579       0.007
   0.17144830  0.09355401  0.02649578       0.007
  -0.13715864  0.09355395  0.02649584       0.007
  -0.10286898  0.09355395  0.02649584       0.007
  -0.06857932  0.09355396  0.02649583       0.007
  -0.03428966  0.09355397  0.02649582       0.007
   0.00000000 -0.09355565  0.02650177       0.007
   0.03428966 -0.09355565  0.02650176       0.007
   0.06857932 -0.09355564  0.02650175       0.007
   0.10286898 -0.09355563  0.02650174       0.007
   0.13715864 -0.09355562  0.02650174       0.007
   0.17144830 -0.09355562  0.02650173       0.007
  -0.13715864 -0.09355568  0.02650179       0.007
  -0.10286898 -0.09355568  0.02650179       0.007
  -0.06857932 -0.09355567  0.02650178       0.007
  -0.03428966 -0.09355566  0.02650177       0.007
   0.00000000 -0.06237072  0.02650077       0.007
   0.03428966 -0.06237071  0.02650077       0.007
   0.06857932 -0.06237070  0.02650076       0.007
   0.10286898 -0.06237069  0.02650075       0.007
   0.13715864 -0.06237069  0.02650074       0.007
   0.17144830 -0.06237068  0.02650074       0.007
  -0.13715864 -0.06237075  0.02650080       0.007
  -0.10286898 -0.06237074  0.02650080       0.007
  -0.06857932 -0.06237073  0.02650079       0.007
  -0.03428966 -0.06237072  0.02650078       0.007
   0.00000000 -0.03118578  0.02649978       0.007
   0.03428966 -0.03118577  0.02649977       0.007
   0.06857932 -0.03118576  0.02649977       0.007
   0.10286898 -0.03118575  0.02649976       0.007
   0.13715864 -0.03118575  0.02649975       0.007
   0.17144830 -0.03118574  0.02649975       0.007
  -0.13715864 -0.03118581  0.02649981       0.007
  -0.10286898 -0.03118580  0.02649980       0.007
  -0.06857932 -0.03118579  0.02649980       0.007
  -0.03428966 -0.03118578  0.02649979       0.007
   0.00000000 -0.00000168  0.05299758       0.004
   0.03428966 -0.00000167  0.05299757       0.007
   0.06857932 -0.00000166  0.05299757       0.007
   0.10286898 -0.00000166  0.05299756       0.007
   0.13715864 -0.00000165  0.05299755       0.007
   0.17144830 -0.00000164  0.05299754       0.004
   0.00000000  0.03118326  0.05299659       0.007
   0.03428966  0.03118327  0.05299658       0.007
   0.06857932  0.03118328  0.05299657       0.007
   0.10286898  0.03118328  0.05299657       0.007
   0.13715864  0.03118329  0.05299656       0.007
   0.17144830  0.03118330  0.05299655       0.007
  -0.13715864  0.03118323  0.05299662       0.007
  -0.10286898  0.03118324  0.05299661       0.007
  -0.06857932  0.03118325  0.05299660       0.007
  -0.03428966  0.03118325  0.05299660       0.007
   0.00000000  0.06236820  0.05299560       0.007
   0.03428966  0.06236821  0.05299559       0.007
   0.06857932  0.06236821  0.05299558       0.007
   0.10286898  0.06236822  0.05299558       0.007
   0.13715864  0.06236823  0.05299557       0.007
   0.17144830  0.06236824  0.05299556       0.007
  -0.13715864  0.06236817  0.05299563       0.007
  -0.10286898  0.06236818  0.05299562       0.007
  -0.06857932  0.06236818  0.05299561       0.007
  -0.03428966  0.06236819  0.05299560       0.007
   0.00000000  0.09355314  0.05299461       0.007
   0.03428966  0.09355315  0.05299460       0.007
   0.06857932  0.09355315  0.05299459       0.007
   0.10286898  0.09355316  0.05299458       0.007
   0.13715864  0.09355317  0.05299458       0.007
   0.17144830  0.09355318  0.05299457       0.007
  -0.13715864  0.09355311  0.05299463       0.007
  -0.10286898  0.09355312  0.05299463       0.007
  -0.06857932  0.09355312  0.05299462       0.007
  -0.03428966  0.09355313  0.05299461       0.007
 
 k-points in reciprocal lattice and weights: read from INCAR                         
   0.00000000  0.00000000  0.00000000       0.004
   0.10000000 -0.00000000  0.00000000       0.007
   0.20000000  0.00000000 -0.00000000       0.007
   0.30000000 -0.00000000  0.00000000       0.007
   0.40000000  0.00000000 -0.00000000       0.007
   0.50000000 -0.00000000 -0.00000000       0.004
   0.00000000  0.14285714  0.00000000       0.007
   0.10000000  0.14285714  0.00000000       0.007
   0.20000000  0.14285714  0.00000000       0.007
   0.30000000  0.14285714  0.00000000       0.007
   0.40000000  0.14285714  0.00000000       0.007
   0.50000000  0.14285714  0.00000000       0.007
  -0.40000000  0.14285714  0.00000000       0.007
  -0.30000000  0.14285714  0.00000000       0.007
  -0.20000000  0.14285714  0.00000000       0.007
  -0.10000000  0.14285714 -0.00000000       0.007
   0.00000000  0.28571429  0.00000000       0.007
   0.10000000  0.28571429 -0.00000000       0.007
   0.20000000  0.28571429  0.00000000       0.007
   0.30000000  0.28571429  0.00000000       0.007
   0.40000000  0.28571429  0.00000000       0.007
   0.50000000  0.28571429  0.00000000       0.007
  -0.40000000  0.28571429 -0.00000000       0.007
  -0.30000000  0.28571429  0.00000000       0.007
  -0.20000000  0.28571429 -0.00000000       0.007
  -0.10000000  0.28571429  0.00000000       0.007
   0.00000000  0.42857143  0.00000000       0.007
   0.10000000  0.42857143 -0.00000000       0.007
   0.20000000  0.42857143  0.00000000       0.007
   0.30000000  0.42857143  0.00000000       0.007
   0.40000000  0.42857143  0.00000000       0.007
   0.50000000  0.42857143  0.00000000       0.007
  -0.40000000  0.42857143 -0.00000000       0.007
  -0.30000000  0.42857143 -0.00000000       0.007
  -0.20000000  0.42857143 -0.00000000       0.007
  -0.10000000  0.42857143  0.00000000       0.007
   0.00000000  0.00000000  0.25000000       0.007
   0.10000000  0.00000000  0.25000000       0.007
   0.20000000  0.00000000  0.25000000       0.007
   0.30000000  0.00000000  0.25000000       0.007
   0.40000000 -0.00000000  0.25000000       0.007
   0.50000000  0.00000000  0.25000000       0.007
  -0.40000000  0.00000000  0.25000000       0.007
  -0.30000000  0.00000000  0.25000000       0.007
  -0.20000000  0.00000000  0.25000000       0.007
  -0.10000000  0.00000000  0.25000000       0.007
   0.00000000  0.14285714  0.25000000       0.007
   0.10000000  0.14285714  0.25000000       0.007
   0.20000000  0.14285714  0.25000000       0.007
   0.30000000  0.14285714  0.25000000       0.007
   0.40000000  0.14285714  0.25000000       0.007
   0.50000000  0.14285714  0.25000000       0.007
  -0.40000000  0.14285714  0.25000000       0.007
  -0.30000000  0.14285714  0.25000000       0.007
  -0.20000000  0.14285714  0.25000000       0.007
  -0.10000000  0.14285714  0.25000000       0.007
   0.00000000  0.28571429  0.25000000       0.007
   0.10000000  0.28571429  0.25000000       0.007
   0.20000000  0.28571429  0.25000000       0.007
   0.30000000  0.28571429  0.25000000       0.007
   0.40000000  0.28571429  0.25000000       0.007
   0.50000000  0.28571429  0.25000000       0.007
  -0.40000000  0.28571429  0.25000000       0.007
  -0.30000000  0.28571429  0.25000000       0.007
  -0.20000000  0.28571429  0.25000000       0.007
  -0.10000000  0.28571429  0.25000000       0.007
   0.00000000  0.42857143  0.25000000       0.007
   0.10000000  0.42857143  0.25000000       0.007
   0.20000000  0.42857143  0.25000000       0.007
   0.30000000  0.42857143  0.25000000       0.007
   0.40000000  0.42857143  0.25000000       0.007
   0.50000000  0.42857143  0.25000000       0.007
  -0.40000000  0.42857143  0.25000000       0.007
  -0.30000000  0.42857143  0.25000000       0.007
  -0.20000000  0.42857143  0.25000000       0.007
  -0.10000000  0.42857143  0.25000000       0.007
   0.00000000 -0.42857143  0.25000000       0.007
   0.10000000 -0.42857143  0.25000000       0.007
   0.20000000 -0.42857143  0.25000000       0.007
   0.30000000 -0.42857143  0.25000000       0.007
   0.40000000 -0.42857143  0.25000000       0.007
   0.50000000 -0.42857143  0.25000000       0.007
  -0.40000000 -0.42857143  0.25000000       0.007
  -0.30000000 -0.42857143  0.25000000       0.007
  -0.20000000 -0.42857143  0.25000000       0.007
  -0.10000000 -0.42857143  0.25000000       0.007
   0.00000000 -0.28571429  0.25000000       0.007
   0.10000000 -0.28571429  0.25000000       0.007
   0.20000000 -0.28571429  0.25000000       0.007
   0.30000000 -0.28571429  0.25000000       0.007
   0.40000000 -0.28571429  0.25000000       0.007
   0.50000000 -0.28571429  0.25000000       0.007
  -0.40000000 -0.28571429  0.25000000       0.007
  -0.30000000 -0.28571429  0.25000000       0.007
  -0.20000000 -0.28571429  0.25000000       0.007
  -0.10000000 -0.28571429  0.25000000       0.007
   0.00000000 -0.14285714  0.25000000       0.007
   0.10000000 -0.14285714  0.25000000       0.007
   0.20000000 -0.14285714  0.25000000       0.007
   0.30000000 -0.14285714  0.25000000       0.007
   0.40000000 -0.14285714  0.25000000       0.007
   0.50000000 -0.14285714  0.25000000       0.007
  -0.40000000 -0.14285714  0.25000000       0.007
  -0.30000000 -0.14285714  0.25000000       0.007
  -0.20000000 -0.14285714  0.25000000       0.007
  -0.10000000 -0.14285714  0.25000000       0.007
   0.00000000  0.00000000  0.50000000       0.004
   0.10000000  0.00000000  0.50000000       0.007
   0.20000000  0.00000000  0.50000000       0.007
   0.30000000  0.00000000  0.50000000       0.007
   0.40000000  0.00000000  0.50000000       0.007
   0.50000000  0.00000000  0.50000000       0.004
   0.00000000  0.14285714  0.50000000       0.007
   0.10000000  0.14285714  0.50000000       0.007
   0.20000000  0.14285714  0.50000000       0.007
   0.30000000  0.14285714  0.50000000       0.007
   0.40000000  0.14285714  0.50000000       0.007
   0.50000000  0.14285714  0.50000000       0.007
  -0.40000000  0.14285714  0.50000000       0.007
  -0.30000000  0.14285714  0.50000000       0.007
  -0.20000000  0.14285714  0.50000000       0.007
  -0.10000000  0.14285714  0.50000000       0.007
   0.00000000  0.28571429  0.50000000       0.007
   0.10000000  0.28571429  0.50000000       0.007
   0.20000000  0.28571429  0.50000000       0.007
   0.30000000  0.28571429  0.50000000       0.007
   0.40000000  0.28571429  0.50000000       0.007
   0.50000000  0.28571429  0.50000000       0.007
  -0.40000000  0.28571429  0.50000000       0.007
  -0.30000000  0.28571429  0.50000000       0.007
  -0.20000000  0.28571429  0.50000000       0.007
  -0.10000000  0.28571429  0.50000000       0.007
   0.00000000  0.42857143  0.50000000       0.007
   0.10000000  0.42857143  0.50000000       0.007
   0.20000000  0.42857143  0.50000000       0.007
   0.30000000  0.42857143  0.50000000       0.007
   0.40000000  0.42857143  0.50000000       0.007
   0.50000000  0.42857143  0.50000000       0.007
  -0.40000000  0.42857143  0.50000000       0.007
  -0.30000000  0.42857143  0.50000000       0.007
  -0.20000000  0.42857143  0.50000000       0.007
  -0.10000000  0.42857143  0.50000000       0.007
 
 position of ions in fractional coordinates (direct lattice) 
   0.24999148  0.93631697  0.87686983
   0.74998751  0.06382362  0.12308829
   0.75000182  0.43619566  0.62307486
   0.24998391  0.56366603  0.37686771
   0.25001245  0.68415372  0.55518806
   0.75000974  0.18442738  0.94479955
   0.24999218  0.81586142  0.05519702
   0.74998308  0.31555533  0.44480297
   0.24999419  0.22467217  0.19829333
   0.25003956  0.27533216  0.69829684
   0.74998510  0.72450157  0.30176039
   0.75001899  0.77549497  0.80176215
 
 position of ions in cartesian coordinates  (Angst):
   0.72905872  4.28949928  8.27287037
   2.18721200  0.29241076  1.16127258
   2.18725436  1.99838441  5.87839634
   0.72903602  2.58224797  3.55559978
   0.72911948  3.13425148  5.23796152
   2.18727837  0.84513902  8.91363703
   0.72905925  3.73744999  0.52086869
   2.18719947  1.44568166  4.19649179
   0.72906597  1.02927505  1.87080982
   0.72919923  1.26149674  6.58804672
   2.18720466  3.31900760  2.84703112
   2.18730446  3.55275661  7.56425167
 


--------------------------------------------------------------------------------------------------------


 k-point  1 :   0.0000 0.0000 0.0000  plane waves:    3437
 k-point  2 :   0.1000-0.0000 0.0000  plane waves:    3403
 k-point  3 :   0.2000 0.0000-0.0000  plane waves:    3401
 k-point  4 :   0.3000-0.0000 0.0000  plane waves:    3401
 k-point  5 :   0.4000 0.0000-0.0000  plane waves:    3399
 k-point  6 :   0.5000-0.0000-0.0000  plane waves:    3382
 k-point  7 :   0.0000 0.1429 0.0000  plane waves:    3413
 k-point  8 :   0.1000 0.1429 0.0000  plane waves:    3411
 k-point  9 :   0.2000 0.1429 0.0000  plane waves:    3409
 k-point 10 :   0.3000 0.1429 0.0000  plane waves:    3390
 k-point 11 :   0.4000 0.1429 0.0000  plane waves:    3387
 k-point 12 :   0.5000 0.1429 0.0000  plane waves:    3386
 k-point 13 :  -0.4000 0.1429 0.0000  plane waves:    3387
 k-point 14 :  -0.3000 0.1429 0.0000  plane waves:    3390
 k-point 15 :  -0.2000 0.1429 0.0000  plane waves:    3409
 k-point 16 :  -0.1000 0.1429-0.0000  plane waves:    3411
 k-point 17 :   0.0000 0.2857 0.0000  plane waves:    3399
 k-point 18 :   0.1000 0.2857-0.0000  plane waves:    3421
 k-point 19 :   0.2000 0.2857 0.0000  plane waves:    3408
 k-point 20 :   0.3000 0.2857 0.0000  plane waves:    3386
 k-point 21 :   0.4000 0.2857 0.0000  plane waves:    3367
 k-point 22 :   0.5000 0.2857 0.0000  plane waves:    3388
 k-point 23 :  -0.4000 0.2857-0.0000  plane waves:    3367
 k-point 24 :  -0.3000 0.2857 0.0000  plane waves:    3386
 k-point 25 :  -0.2000 0.2857-0.0000  plane waves:    3408
 k-point 26 :  -0.1000 0.2857 0.0000  plane waves:    3421
 k-point 27 :   0.0000 0.4286 0.0000  plane waves:    3399
 k-point 28 :   0.1000 0.4286-0.0000  plane waves:    3407
 k-point 29 :   0.2000 0.4286 0.0000  plane waves:    3399
 k-point 30 :   0.3000 0.4286 0.0000  plane waves:    3378
 k-point 31 :   0.4000 0.4286 0.0000  plane waves:    3372
 k-point 32 :   0.5000 0.4286 0.0000  plane waves:    3370
 k-point 33 :  -0.4000 0.4286-0.0000  plane waves:    3372
 k-point 34 :  -0.3000 0.4286-0.0000  plane waves:    3378
 k-point 35 :  -0.2000 0.4286-0.0000  plane waves:    3399
 k-point 36 :  -0.1000 0.4286 0.0000  plane waves:    3407
 k-point 37 :   0.0000 0.0000 0.2500  plane waves:    3403
 k-point 38 :   0.1000 0.0000 0.2500  plane waves:    3394
 k-point 39 :   0.2000 0.0000 0.2500  plane waves:    3404
 k-point 40 :   0.3000 0.0000 0.2500  plane waves:    3406
 k-point 41 :   0.4000-0.0000 0.2500  plane waves:    3396
 k-point 42 :   0.5000 0.0000 0.2500  plane waves:    3390
 k-point 43 :  -0.4000 0.0000 0.2500  plane waves:    3396
 k-point 44 :  -0.3000 0.0000 0.2500  plane waves:    3406
 k-point 45 :  -0.2000 0.0000 0.2500  plane waves:    3404
 k-point 46 :  -0.1000 0.0000 0.2500  plane waves:    3394
 k-point 47 :   0.0000 0.1429 0.2500  plane waves:    3409
 k-point 48 :   0.1000 0.1429 0.2500  plane waves:    3403
 k-point 49 :   0.2000 0.1429 0.2500  plane waves:    3403
 k-point 50 :   0.3000 0.1429 0.2500  plane waves:    3403
 k-point 51 :   0.4000 0.1429 0.2500  plane waves:    3385
 k-point 52 :   0.5000 0.1429 0.2500  plane waves:    3388
 k-point 53 :  -0.4000 0.1429 0.2500  plane waves:    3385
 k-point 54 :  -0.3000 0.1429 0.2500  plane waves:    3403
 k-point 55 :  -0.2000 0.1429 0.2500  plane waves:    3403
 k-point 56 :  -0.1000 0.1429 0.2500  plane waves:    3403
 k-point 57 :   0.0000 0.2857 0.2500  plane waves:    3416
 k-point 58 :   0.1000 0.2857 0.2500  plane waves:    3410
 k-point 59 :   0.2000 0.2857 0.2500  plane waves:    3401
 k-point 60 :   0.3000 0.2857 0.2500  plane waves:    3381
 k-point 61 :   0.4000 0.2857 0.2500  plane waves:    3378
 k-point 62 :   0.5000 0.2857 0.2500  plane waves:    3370
 k-point 63 :  -0.4000 0.2857 0.2500  plane waves:    3378
 k-point 64 :  -0.3000 0.2857 0.2500  plane waves:    3381
 k-point 65 :  -0.2000 0.2857 0.2500  plane waves:    3401
 k-point 66 :  -0.1000 0.2857 0.2500  plane waves:    3410
 k-point 67 :   0.0000 0.4286 0.2500  plane waves:    3399
 k-point 68 :   0.1000 0.4286 0.2500  plane waves:    3406
 k-point 69 :   0.2000 0.4286 0.2500  plane waves:    3389
 k-point 70 :   0.3000 0.4286 0.2500  plane waves:    3390
 k-point 71 :   0.4000 0.4286 0.2500  plane waves:    3366
 k-point 72 :   0.5000 0.4286 0.2500  plane waves:    3362
 k-point 73 :  -0.4000 0.4286 0.2500  plane waves:    3366
 k-point 74 :  -0.3000 0.4286 0.2500  plane waves:    3390
 k-point 75 :  -0.2000 0.4286 0.2500  plane waves:    3389
 k-point 76 :  -0.1000 0.4286 0.2500  plane waves:    3406
 k-point 77 :   0.0000-0.4286 0.2500  plane waves:    3399
 k-point 78 :   0.1000-0.4286 0.2500  plane waves:    3405
 k-point 79 :   0.2000-0.4286 0.2500  plane waves:    3388
 k-point 80 :   0.3000-0.4286 0.2500  plane waves:    3390
 k-point 81 :   0.4000-0.4286 0.2500  plane waves:    3366
 k-point 82 :   0.5000-0.4286 0.2500  plane waves:    3362
 k-point 83 :  -0.4000-0.4286 0.2500  plane waves:    3366
 k-point 84 :  -0.3000-0.4286 0.2500  plane waves:    3390
 k-point 85 :  -0.2000-0.4286 0.2500  plane waves:    3388
 k-point 86 :  -0.1000-0.4286 0.2500  plane waves:    3405
 k-point 87 :   0.0000-0.2857 0.2500  plane waves:    3416
 k-point 88 :   0.1000-0.2857 0.2500  plane waves:    3410
 k-point 89 :   0.2000-0.2857 0.2500  plane waves:    3401
 k-point 90 :   0.3000-0.2857 0.2500  plane waves:    3380
 k-point 91 :   0.4000-0.2857 0.2500  plane waves:    3378
 k-point 92 :   0.5000-0.2857 0.2500  plane waves:    3370
 k-point 93 :  -0.4000-0.2857 0.2500  plane waves:    3378
 k-point 94 :  -0.3000-0.2857 0.2500  plane waves:    3380
 k-point 95 :  -0.2000-0.2857 0.2500  plane waves:    3401
 k-point 96 :  -0.1000-0.2857 0.2500  plane waves:    3410
 k-point 97 :   0.0000-0.1429 0.2500  plane waves:    3409
 k-point 98 :   0.1000-0.1429 0.2500  plane waves:    3403
 k-point 99 :   0.2000-0.1429 0.2500  plane waves:    3402
 k-point ** :   0.3000-0.1429 0.2500  plane waves:    3403
 k-point ** :   0.4000-0.1429 0.2500  plane waves:    3385
 k-point ** :   0.5000-0.1429 0.2500  plane waves:    3388
 k-point ** :  -0.4000-0.1429 0.2500  plane waves:    3385
 k-point ** :  -0.3000-0.1429 0.2500  plane waves:    3403
 k-point ** :  -0.2000-0.1429 0.2500  plane waves:    3402
 k-point ** :  -0.1000-0.1429 0.2500  plane waves:    3403
 k-point ** :   0.0000 0.0000 0.5000  plane waves:    3396
 k-point ** :   0.1000 0.0000 0.5000  plane waves:    3376
 k-point ** :   0.2000 0.0000 0.5000  plane waves:    3398
 k-point ** :   0.3000 0.0000 0.5000  plane waves:    3402
 k-point ** :   0.4000 0.0000 0.5000  plane waves:    3370
 k-point ** :   0.5000 0.0000 0.5000  plane waves:    3388
 k-point ** :   0.0000 0.1429 0.5000  plane waves:    3402
 k-point ** :   0.1000 0.1429 0.5000  plane waves:    3408
 k-point ** :   0.2000 0.1429 0.5000  plane waves:    3406
 k-point ** :   0.3000 0.1429 0.5000  plane waves:    3398
 k-point ** :   0.4000 0.1429 0.5000  plane waves:    3376
 k-point ** :   0.5000 0.1429 0.5000  plane waves:    3382
 k-point ** :  -0.4000 0.1429 0.5000  plane waves:    3376
 k-point ** :  -0.3000 0.1429 0.5000  plane waves:    3398
 k-point ** :  -0.2000 0.1429 0.5000  plane waves:    3406
 k-point ** :  -0.1000 0.1429 0.5000  plane waves:    3408
 k-point ** :   0.0000 0.2857 0.5000  plane waves:    3418
 k-point ** :   0.1000 0.2857 0.5000  plane waves:    3396
 k-point ** :   0.2000 0.2857 0.5000  plane waves:    3404
 k-point ** :   0.3000 0.2857 0.5000  plane waves:    3392
 k-point ** :   0.4000 0.2857 0.5000  plane waves:    3378
 k-point ** :   0.5000 0.2857 0.5000  plane waves:    3380
 k-point ** :  -0.4000 0.2857 0.5000  plane waves:    3378
 k-point ** :  -0.3000 0.2857 0.5000  plane waves:    3392
 k-point ** :  -0.2000 0.2857 0.5000  plane waves:    3404
 k-point ** :  -0.1000 0.2857 0.5000  plane waves:    3396
 k-point ** :   0.0000 0.4286 0.5000  plane waves:    3424
 k-point ** :   0.1000 0.4286 0.5000  plane waves:    3406
 k-point ** :   0.2000 0.4286 0.5000  plane waves:    3394
 k-point ** :   0.3000 0.4286 0.5000  plane waves:    3382
 k-point ** :   0.4000 0.4286 0.5000  plane waves:    3366
 k-point ** :   0.5000 0.4286 0.5000  plane waves:    3360
 k-point ** :  -0.4000 0.4286 0.5000  plane waves:    3366
 k-point ** :  -0.3000 0.4286 0.5000  plane waves:    3382
 k-point ** :  -0.2000 0.4286 0.5000  plane waves:    3394
 k-point ** :  -0.1000 0.4286 0.5000  plane waves:    3406

 maximum and minimum number of plane-waves per node :       871      830

 maximum number of plane-waves:      3437
 maximum index in each direction: 
   IXMAX=    5   IYMAX=    8   IZMAX=   17
   IXMIN=   -5   IYMIN=   -8   IZMIN=  -18


 real space projection operators:
  total allocation   :       4772.59 KBytes
  max/ min on nodes  :       1204.19       1186.02


 parallel 3D FFT for wavefunctions:
    minimum data exchange during FFTs selected (reduces bandwidth)
 parallel 3D FFT for charge:
    minimum data exchange during FFTs selected (reduces bandwidth)


 total amount of memory used by VASP MPI-rank0    99863. kBytes
=======================================================================

   base      :      30000. kBytes
   nonlr-proj:       2723. kBytes
   fftplans  :       1492. kBytes
   grid      :       3666. kBytes
   one-center:         93. kBytes
   wavefun   :      61889. kBytes
 
     INWAV:  cpu time    2.6767: real time    3.9986
 Broyden mixing: mesh for mixing (old mesh)
   NGX = 11   NGY = 17   NGZ = 35
  (NGX  = 48   NGY  = 72   NGZ  =140)
  gives a total of   6545 points

 charge density for first step will be calculated from the start-wavefunctions


--------------------------------------------------------------------------------------------------------


 Maximum index for non-local projection operator         1496
 Maximum index for augmentation-charges          908 (set IRDMAX)


--------------------------------------------------------------------------------------------------------


 initial charge from wavefunction
 First call to EWALD:  gamma=   0.354
 Maximum number of real-space cells 4x 3x 2
 Maximum number of reciprocal cells 2x 3x 5

    FEWALD:  cpu time    0.0013: real time    0.0032


--------------------------------------- Iteration      1(   1)  ---------------------------------------


    POTLOK:  cpu time    0.0283: real time    0.0626
    SETDIJ:  cpu time    0.4223: real time    0.5519
     EDDAV:  cpu time   29.1919: real time   36.0221
       DOS:  cpu time    0.0115: real time    0.0115
    CHARGE:  cpu time    1.0260: real time    1.1927
    MIXING:  cpu time    0.0015: real time    0.0028
    --------------------------------------------
      LOOP:  cpu time   30.6815: real time   37.8436

 eigenvalue-minimisations  : 44928
 total energy-change (2. order) :-0.6547565E+02  (-0.1501684E+03)
 number of electron      99.9999975 magnetization      -0.0003276
 augmentation part       35.9210373 magnetization      -0.0001361

 Broyden mixing:
  rms(total) = 0.29175E+01    rms(broyden)= 0.29173E+01
  rms(prec ) = 0.32220E+01
  weight for this iteration     100.00

 Free energy of the ion-electron system (eV)
  ---------------------------------------------------
  alpha Z        PSCENC =       441.37612112
  Ewald energy   TEWEN  =     -7264.33638639
  -Hartree energ DENC   =     -3778.60502603
  -exchange      EXHF   =         0.00000000
  -V(xc)+E(xc)   XCENC  =       499.42235424
  PAW double counting   =     14782.97700413   -15023.67842439
  entropy T*S    EENTRO =        -0.00007916
  eigenvalues    EBANDS =     -1282.53759460
  atomic energy  EATOM  =     11559.90638050
  Solvation  Ediel_sol  =         0.00000000
  ---------------------------------------------------
  free energy    TOTEN  =       -65.47565059 eV

  energy without entropy =      -65.47557143  energy(sigma->0) =      -65.47561101


--------------------------------------------------------------------------------------------------------




--------------------------------------- Iteration      1(   2)  ---------------------------------------


    POTLOK:  cpu time    0.0302: real time    0.0607
    SETDIJ:  cpu time    0.2784: real time    0.4733
    EDDIAG:  cpu time    4.0346: real time    5.0417
  RMM-DIIS:  cpu time   12.4152: real time   15.7697
    ORTHCH:  cpu time    0.7878: real time    0.8174
       DOS:  cpu time    0.0089: real time    0.0180
    CHARGE:  cpu time    0.7943: real time    1.1078
    MIXING:  cpu time    0.0008: real time    0.0017
    --------------------------------------------
      LOOP:  cpu time   18.3502: real time   23.2903

 eigenvalue-minimisations  : 37192
 total energy-change (2. order) :-0.3869184E+02  (-0.4168448E+02)
 number of electron      99.9999973 magnetization      -0.0002314
 augmentation part       32.4023348 magnetization      -0.0003975

 Broyden mixing:
  rms(total) = 0.29690E+01    rms(broyden)= 0.29687E+01
  rms(prec ) = 0.33989E+01
  weight for this iteration     100.00

 eigenvalues of (default mixing * dielectric matrix)
  average eigenvalue GAMMA=   0.3759
  0.3759

 Free energy of the ion-electron system (eV)
  ---------------------------------------------------
  alpha Z        PSCENC =       441.37612112
  Ewald energy   TEWEN  =     -7264.33638639
  -Hartree energ DENC   =     -3880.45635958
  -exchange      EXHF   =         0.00000000
  -V(xc)+E(xc)   XCENC  =       502.22291313
  PAW double counting   =     14453.48786176   -14707.22842262
  entropy T*S    EENTRO =        -0.00000279
  eigenvalues    EBANDS =     -1209.13959971
  atomic energy  EATOM  =     11559.90638050
  Solvation  Ediel_sol  =         0.00000000
  ---------------------------------------------------
  free energy    TOTEN  =      -104.16749457 eV

  energy without entropy =     -104.16749178  energy(sigma->0) =     -104.16749318


--------------------------------------------------------------------------------------------------------




--------------------------------------- Iteration      1(   3)  ---------------------------------------


    POTLOK:  cpu time    0.0268: real time    0.0551
    SETDIJ:  cpu time    0.3326: real time    0.5944
    EDDIAG:  cpu time    4.0225: real time    5.2615
  RMM-DIIS:  cpu time   15.2311: real time   20.1914
    ORTHCH:  cpu time    0.7718: real time    0.7732
       DOS:  cpu time    0.0029: real time    0.0029
    CHARGE:  cpu time    1.0776: real time    1.0805
    MIXING:  cpu time    0.0014: real time    0.0014
    --------------------------------------------
      LOOP:  cpu time   21.4668: real time   27.9605

 eigenvalue-minimisations  : 42364
 total energy-change (2. order) : 0.1046068E+02  (-0.2167302E+01)
 number of electron      99.9999973 magnetization      -0.0001156
 augmentation part       33.1987993 magnetization      -0.0002134

 Broyden mixing:
  rms(total) = 0.15242E+01    rms(broyden)= 0.15241E+01
  rms(prec ) = 0.16209E+01
  weight for this iteration     100.00

 eigenvalues of (default mixing * dielectric matrix)
  average eigenvalue GAMMA=   0.7519
  1.0072  0.4965

 Free energy of the ion-electron system (eV)
  ---------------------------------------------------
  alpha Z        PSCENC =       441.37612112
  Ewald energy   TEWEN  =     -7264.33638639
  -Hartree energ DENC   =     -3827.53872932
  -exchange      EXHF   =         0.00000000
  -V(xc)+E(xc)   XCENC  =       501.26577053
  PAW double counting   =     14044.96318979   -14292.85269886
  entropy T*S    EENTRO =        -0.00000000
  eigenvalues    EBANDS =     -1256.49046347
  atomic energy  EATOM  =     11559.90638050
  Solvation  Ediel_sol  =         0.00000000
  ---------------------------------------------------
  free energy    TOTEN  =       -93.70681610 eV

  energy without entropy =      -93.70681610  energy(sigma->0) =      -93.70681610


--------------------------------------------------------------------------------------------------------




--------------------------------------- Iteration      1(   4)  ---------------------------------------


    POTLOK:  cpu time    0.0552: real time    0.0572
    SETDIJ:  cpu time    0.4832: real time    0.4838
    EDDIAG:  cpu time    4.8882: real time    4.8999
  RMM-DIIS:  cpu time   13.2114: real time   13.2369
    ORTHCH:  cpu time    0.7743: real time    0.7923
       DOS:  cpu time    0.0030: real time    0.0030
    CHARGE:  cpu time    0.9566: real time    0.9581
    MIXING:  cpu time    0.0017: real time    0.0017
    --------------------------------------------
      LOOP:  cpu time   20.3737: real time   20.4329

 eigenvalue-minimisations  : 37581
 total energy-change (2. order) :-0.2791077E+00  (-0.1111716E+01)
 number of electron      99.9999974 magnetization       0.0000657
 augmentation part       34.3369614 magnetization       0.0000569

 Broyden mixing:
  rms(total) = 0.11768E+01    rms(broyden)= 0.11766E+01
  rms(prec ) = 0.13442E+01
  weight for this iteration     100.00

 eigenvalues of (default mixing * dielectric matrix)
  average eigenvalue GAMMA=   1.1763
  2.4285  0.5501  0.5501

 Free energy of the ion-electron system (eV)
  ---------------------------------------------------
  alpha Z        PSCENC =       441.37612112
  Ewald energy   TEWEN  =     -7264.33638639
  -Hartree energ DENC   =     -3787.95410719
  -exchange      EXHF   =         0.00000000
  -V(xc)+E(xc)   XCENC  =       500.28059435
  PAW double counting   =     13366.82898662   -13608.65856460
  entropy T*S    EENTRO =        -0.00000000
  eigenvalues    EBANDS =     -1301.42894819
  atomic energy  EATOM  =     11559.90638050
  Solvation  Ediel_sol  =         0.00000000
  ---------------------------------------------------
  free energy    TOTEN  =       -93.98592379 eV

  energy without entropy =      -93.98592379  energy(sigma->0) =      -93.98592379


--------------------------------------------------------------------------------------------------------




--------------------------------------- Iteration      1(   5)  ---------------------------------------


    POTLOK:  cpu time    0.0553: real time    0.0593
    SETDIJ:  cpu time    0.4241: real time    0.4246
    EDDIAG:  cpu time    4.7717: real time    4.7825
  RMM-DIIS:  cpu time   14.8429: real time   14.8778
    ORTHCH:  cpu time    0.7624: real time    0.7727
       DOS:  cpu time    0.0029: real time    0.0051
    CHARGE:  cpu time    0.8730: real time    0.8771
    MIXING:  cpu time    0.0016: real time    0.0016
    --------------------------------------------
      LOOP:  cpu time   21.7340: real time   21.8007

 eigenvalue-minimisations  : 44036
 total energy-change (2. order) : 0.7481774E+00  (-0.1334433E+00)
 number of electron      99.9999974 magnetization       0.0000423
 augmentation part       33.9739044 magnetization       0.0000752

 Broyden mixing:
  rms(total) = 0.37536E+00    rms(broyden)= 0.37533E+00
  rms(prec ) = 0.41038E+00
  weight for this iteration     100.00

 eigenvalues of (default mixing * dielectric matrix)
  average eigenvalue GAMMA=   1.1304
  2.6846  0.5706  0.5706  0.6958

 Free energy of the ion-electron system (eV)
  ---------------------------------------------------
  alpha Z        PSCENC =       441.37612112
  Ewald energy   TEWEN  =     -7264.33638639
  -Hartree energ DENC   =     -3790.07474392
  -exchange      EXHF   =         0.00000000
  -V(xc)+E(xc)   XCENC  =       499.62494112
  PAW double counting   =     12570.18485933   -12808.50672016
  entropy T*S    EENTRO =        -0.00000000
  eigenvalues    EBANDS =     -1301.41219802
  atomic energy  EATOM  =     11559.90638050
  Solvation  Ediel_sol  =         0.00000000
  ---------------------------------------------------
  free energy    TOTEN  =       -93.23774641 eV

  energy without entropy =      -93.23774641  energy(sigma->0) =      -93.23774641


--------------------------------------------------------------------------------------------------------




--------------------------------------- Iteration      1(   6)  ---------------------------------------


    POTLOK:  cpu time    0.0521: real time    0.0575
    SETDIJ:  cpu time    0.4391: real time    0.4409
    EDDIAG:  cpu time    4.5621: real time    4.9898
  RMM-DIIS:  cpu time   10.8839: real time   14.3629
    ORTHCH:  cpu time    0.7201: real time    0.8016
       DOS:  cpu time    0.0023: real time    0.0049
    CHARGE:  cpu time    0.7207: real time    0.9783
    MIXING:  cpu time    0.0009: real time    0.0019
    --------------------------------------------
      LOOP:  cpu time   17.3812: real time   21.6377

 eigenvalue-minimisations  : 37778
 total energy-change (2. order) : 0.9005185E-02  (-0.4168764E-01)
 number of electron      99.9999974 magnetization       0.0000225
 augmentation part       33.7453909 magnetization       0.0000148

 Broyden mixing:
  rms(total) = 0.11222E+00    rms(broyden)= 0.11211E+00
  rms(prec ) = 0.13512E+00
  weight for this iteration     100.00

 eigenvalues of (default mixing * dielectric matrix)
  average eigenvalue GAMMA=   1.0572
  2.5647  0.5675  0.5675  0.8753  0.7111

 Free energy of the ion-electron system (eV)
  ---------------------------------------------------
  alpha Z        PSCENC =       441.37612112
  Ewald energy   TEWEN  =     -7264.33638639
  -Hartree energ DENC   =     -3799.84464764
  -exchange      EXHF   =         0.00000000
  -V(xc)+E(xc)   XCENC  =       500.06647242
  PAW double counting   =     12574.63966464   -12813.84197134
  entropy T*S    EENTRO =        -0.00000000
  eigenvalues    EBANDS =     -1291.19437454
  atomic energy  EATOM  =     11559.90638050
  Solvation  Ediel_sol  =         0.00000000
  ---------------------------------------------------
  free energy    TOTEN  =       -93.22874123 eV

  energy without entropy =      -93.22874123  energy(sigma->0) =      -93.22874123


--------------------------------------------------------------------------------------------------------




--------------------------------------- Iteration      1(   7)  ---------------------------------------


    POTLOK:  cpu time    0.0268: real time    0.0567
    SETDIJ:  cpu time    0.3285: real time    0.4948
    EDDIAG:  cpu time    4.1880: real time    4.9313
  RMM-DIIS:  cpu time   13.5571: real time   24.3323
    ORTHCH:  cpu time    0.4530: real time    0.9032
       DOS:  cpu time    0.0023: real time    0.0057
    CHARGE:  cpu time    0.6388: real time    1.2845
    MIXING:  cpu time    0.0009: real time    0.0017
    --------------------------------------------
      LOOP:  cpu time   19.1953: real time   32.0102

 eigenvalue-minimisations  : 45554
 total energy-change (2. order) : 0.1103920E-01  (-0.4019184E-02)
 number of electron      99.9999974 magnetization       0.0000077
 augmentation part       33.7739707 magnetization      -0.0000157

 Broyden mixing:
  rms(total) = 0.52253E-01    rms(broyden)= 0.52249E-01
  rms(prec ) = 0.58682E-01
  weight for this iteration     100.00

 eigenvalues of (default mixing * dielectric matrix)
  average eigenvalue GAMMA=   1.0224
  2.5601  0.9148  0.9148  0.5691  0.5691  0.6066

 Free energy of the ion-electron system (eV)
  ---------------------------------------------------
  alpha Z        PSCENC =       441.37612112
  Ewald energy   TEWEN  =     -7264.33638639
  -Hartree energ DENC   =     -3800.49792215
  -exchange      EXHF   =         0.00000000
  -V(xc)+E(xc)   XCENC  =       500.17244237
  PAW double counting   =     12579.78098133   -12819.25194694
  entropy T*S    EENTRO =        -0.00000000
  eigenvalues    EBANDS =     -1290.36737187
  atomic energy  EATOM  =     11559.90638050
  Solvation  Ediel_sol  =         0.00000000
  ---------------------------------------------------
  free energy    TOTEN  =       -93.21770203 eV

  energy without entropy =      -93.21770203  energy(sigma->0) =      -93.21770203


--------------------------------------------------------------------------------------------------------




--------------------------------------- Iteration      1(   8)  ---------------------------------------


    POTLOK:  cpu time    0.0277: real time    0.0598
    SETDIJ:  cpu time    0.4428: real time    0.8151
    EDDIAG:  cpu time    2.9636: real time    5.4270
  RMM-DIIS:  cpu time   13.0595: real time   20.2067
    ORTHCH:  cpu time    0.6590: real time    0.8139
       DOS:  cpu time    0.0022: real time    0.0044
    CHARGE:  cpu time    0.6005: real time    1.1983
    MIXING:  cpu time    0.0009: real time    0.0020
    --------------------------------------------
      LOOP:  cpu time   17.7562: real time   28.5271

 eigenvalue-minimisations  : 41435
 total energy-change (2. order) :-0.6893194E-04  (-0.1923088E-02)
 number of electron      99.9999974 magnetization      -0.0000001
 augmentation part       33.8005870 magnetization      -0.0000515

 Broyden mixing:
  rms(total) = 0.41619E-01    rms(broyden)= 0.41608E-01
  rms(prec ) = 0.48419E-01
  weight for this iteration     100.00

 eigenvalues of (default mixing * dielectric matrix)
  average eigenvalue GAMMA=   1.0899
  2.5345  1.8475  0.9355  0.5721  0.5721  0.6917  0.4760

 Free energy of the ion-electron system (eV)
  ---------------------------------------------------
  alpha Z        PSCENC =       441.37612112
  Ewald energy   TEWEN  =     -7264.33638639
  -Hartree energ DENC   =     -3800.83389561
  -exchange      EXHF   =         0.00000000
  -V(xc)+E(xc)   XCENC  =       500.25325019
  PAW double counting   =     12560.28089131   -12799.86404734
  entropy T*S    EENTRO =        -0.00000000
  eigenvalues    EBANDS =     -1290.00008473
  atomic energy  EATOM  =     11559.90638050
  Solvation  Ediel_sol  =         0.00000000
  ---------------------------------------------------
  free energy    TOTEN  =       -93.21777096 eV

  energy without entropy =      -93.21777096  energy(sigma->0) =      -93.21777096


--------------------------------------------------------------------------------------------------------




--------------------------------------- Iteration      1(   9)  ---------------------------------------


    POTLOK:  cpu time    0.0560: real time    0.0592
    SETDIJ:  cpu time    0.4431: real time    0.6956
