unknown system                          
           1
     2.916331    0.000000    0.000000
    -0.000001    4.580966    0.000145
     0.000002    0.000300    9.434393
   Mn   O 
   4   8
Direct configuration=     1
   0.24999148  0.93631697  0.87686983
   0.74998751  0.06382362  0.12308829
   0.75000182  0.43619566  0.62307486
   0.24998391  0.56366603  0.37686771
   0.25001245  0.68415372  0.55518806
   0.75000974  0.18442738  0.94479955
   0.24999218  0.81586142  0.05519702
   0.74998308  0.31555533  0.44480297
   0.24999419  0.22467217  0.19829333
   0.25003956  0.27533216  0.69829684
   0.74998510  0.72450157  0.30176039
   0.75001899  0.77549497  0.80176215
unknown system                          
           1
     3.001480    0.000015   -0.000008
     0.000022    4.756346    0.000102
    -0.000024    0.000208    9.899375
   Mn   O 
   4   8
Direct configuration=     2
   0.25001490  0.96175215  0.87347162
   0.74999332  0.03853284  0.12651064
   0.75002871  0.46146359  0.62651889
   0.24998626  0.53823540  0.37347418
   0.25000982  0.69686787  0.55612770
   0.75000639  0.19708448  0.94385039
   0.24999398  0.80314642  0.05614616
   0.74998959  0.30289807  0.44385321
   0.24998910  0.25088539  0.20779449
   0.25000340  0.24912992  0.70779194
   0.74998641  0.75081050  0.29222858
   0.74999811  0.74919437  0.79223322
unknown system                          
           1
     2.960934    0.000008   -0.000004
     0.000011    4.672833    0.000123
    -0.000012    0.000252    9.677960
   Mn   O 
   4   8
Direct configuration=     3
   0.25000417  0.95008704  0.87501372
   0.74999053  0.05013173  0.12495759
   0.75001635  0.44987512  0.62495588
   0.24998510  0.54989849  0.37501426
   0.25001108  0.69103686  0.55570125
   0.75000799  0.19127966  0.94428110
   0.24999310  0.80897780  0.05571546
   0.74998654  0.30870298  0.44428425
   0.24999151  0.23886332  0.20348267
   0.25002000  0.26114676  0.70348299
   0.74998593  0.73874473  0.29655419
   0.75000771  0.76125651  0.79655764
unknown system                          
           1
     2.860474   -0.000001   -0.000005
    -0.000003    4.642039    0.000071
    -0.000015    0.000146    9.579303
   Mn   O 
   4   8
Direct configuration=     4
   0.25001108  0.96552839  0.86993916
   0.74999894  0.03471922  0.13003340
   0.75001714  0.46528622  0.63003118
   0.24998840  0.53446480  0.36993605
   0.25000671  0.69054239  0.55305912
   0.75000392  0.19075727  0.94692706
   0.24999556  0.80946440  0.05307180
   0.74999362  0.30922999  0.44693511
   0.24998948  0.25087041  0.20705069
   0.25000603  0.24913635  0.70705170
   0.74998692  0.75076613  0.29298100
   0.75000217  0.74923543  0.79298472
unknown system                          
           1
     2.806748   -0.000006   -0.000006
    -0.000011    4.625571    0.000043
    -0.000016    0.000089    9.526541
   Mn   O 
   4   8
Direct configuration=     5
   0.25001495  0.97384128  0.86719734
   0.75000356  0.02642187  0.13277590
   0.75001763  0.47358295  0.63277350
   0.24999019  0.52615590  0.36719216
   0.25000429  0.69027615  0.55163154
   0.75000167  0.19047606  0.94835672
   0.24999692  0.80972633  0.05164339
   0.74999755  0.30951374  0.44836741
   0.24998839  0.25733455  0.20897859
   0.24999827  0.24267051  0.70897990
   0.74998750  0.75723789  0.29105038
   0.74999907  0.74276376  0.79105417
unknown system                          
           1
     2.834528    0.000000   -0.000003
    -0.000001    4.571428    0.000041
    -0.000006    0.000085    9.434652
   Mn   O 
   4   8
Direct configuration=     6
   0.25000275  0.97797117  0.86139263
   0.75000022  0.02208208  0.13858760
   0.75000539  0.47792527  0.63858863
   0.24999285  0.52201951  0.36139218
   0.25000513  0.69207867  0.54889910
   0.75000526  0.19231327  0.95110618
   0.24999860  0.80792182  0.04890693
   0.74999801  0.30768600  0.45110980
   0.24999473  0.25850544  0.20809348
   0.25000139  0.24149892  0.70809449
   0.74999270  0.75840740  0.29191429
   0.75000297  0.74159143  0.79191570
unknown system                          
           1
     2.825564   -0.000002   -0.000004
    -0.000004    4.588898    0.000042
    -0.000009    0.000086    9.464302
   Mn   O 
   4   8
Direct configuration=     7
   0.25000664  0.97662277  0.86328392
   0.75000129  0.02349902  0.13669403
   0.75000931  0.47650751  0.63669394
   0.24999199  0.52337004  0.36328193
   0.25000486  0.69149015  0.54978938
   0.75000412  0.19171343  0.95021035
   0.24999806  0.80851099  0.04979852
   0.74999787  0.30828275  0.45021627
   0.24999270  0.25812315  0.20838187
   0.25000039  0.24188144  0.70838297
   0.74999104  0.75802556  0.29163281
   0.75000172  0.74197420  0.79163500
unknown system                          
           1
     2.862996    0.000002    0.000000
     0.000002    4.567899    0.000038
     0.000004    0.000079    9.415208
   Mn   O 
   4   8
Direct configuration=     8
   0.24999934  0.97941486  0.86406201
   0.74999782  0.02064831  0.13593873
   0.75000272  0.47935857  0.63593897
   0.24999382  0.52058058  0.36406096
   0.25000393  0.69205391  0.54930764
   0.75000456  0.19224340  0.95069390
   0.24999910  0.80794475  0.04931408
   0.74999763  0.30775487  0.45069658
   0.24999756  0.25614144  0.20661958
   0.25000458  0.24386278  0.70662064
   0.74999466  0.75607666  0.29337387
   0.75000428  0.74392087  0.79337405
unknown system                          
           1
     2.880785    0.000004    0.000002
     0.000005    4.557920    0.000037
     0.000010    0.000076    9.391876
   Mn   O 
   4   8
Direct configuration=     9
   0.24999591  0.98074790  0.86443373
   0.74999620  0.01928728  0.13557789
   0.74999963  0.48071976  0.63557829
   0.24999467  0.51924879  0.36443312
   0.25000350  0.69232306  0.54907750
   0.75000476  0.19249642  0.95092490
   0.24999959  0.80767441  0.04908265
   0.74999752  0.30750284  0.45092603
   0.24999985  0.25519531  0.20577768
   0.25000655  0.24480874  0.70577872
   0.74999635  0.75514618  0.29420563
   0.75000548  0.74485028  0.79420485
unknown system                          
           1
     2.874228    0.000001    0.000000
     0.000001    4.542050    0.000020
     0.000004    0.000041    9.384784
   Mn   O 
   4   8
Direct configuration=    10
   0.24999963  0.98299113  0.86432718
   0.74999765  0.01708288  0.13568544
   0.75000140  0.48291985  0.63568412
   0.24999742  0.51700514  0.36432619
   0.25000073  0.69408134  0.54932683
   0.75000113  0.19415862  0.95066874
   0.25000006  0.80592167  0.04933304
   0.74999823  0.30583921  0.45067083
   0.24999922  0.25252822  0.20464530
   0.25000414  0.24747392  0.70464628
   0.74999739  0.75248670  0.29534361
   0.75000300  0.74751232  0.79534344
unknown system                          
           1
     2.871889    0.000000   -0.000000
    -0.000001    4.536389    0.000014
     0.000002    0.000028    9.382254
   Mn   O 
   4   8
Direct configuration=    11
   0.25000096  0.98379407  0.86428915
   0.74999816  0.01629384  0.13572382
   0.75000203  0.48370735  0.63572190
   0.24999840  0.51620206  0.36428801
   0.24999974  0.69471069  0.54941584
   0.74999984  0.19475359  0.95057731
   0.25000023  0.80529430  0.04942242
   0.74999849  0.30524372  0.45057973
   0.24999899  0.25157357  0.20424108
   0.25000328  0.24842789  0.70424205
   0.74999776  0.75153477  0.29574982
   0.75000211  0.74846516  0.79574987
unknown system                          
           1
     2.871768    0.000001   -0.000002
     0.000000    4.538845    0.000009
    -0.000003    0.000019    9.392317
   Mn   O 
   4   8
Direct configuration=    12
   0.25000367  0.98711627  0.86434178
   0.74999999  0.01290685  0.13566150
   0.75000293  0.48709486  0.63565987
   0.25000043  0.51288212  0.36434133
   0.24999845  0.69794002  0.54917896
   0.74999775  0.19794342  0.95081817
   0.24999999  0.80206439  0.04918312
   0.74999943  0.30205174  0.45081982
   0.24999838  0.25013762  0.20408205
   0.25000020  0.24986365  0.70408208
   0.74999913  0.75009408  0.29591627
   0.74999965  0.74990597  0.79591605
unknown system                          
           1
     2.871708    0.000001   -0.000003
     0.000000    4.540050    0.000007
    -0.000006    0.000015    9.397253
   Mn   O 
   4   8
Direct configuration=    13
   0.25000499  0.98874461  0.86436757
   0.75000089  0.01124676  0.13563097
   0.75000337  0.48875521  0.63562948
   0.25000142  0.51125490  0.36436744
   0.24999782  0.69952284  0.54906293
   0.74999673  0.19950688  0.95093616
   0.24999987  0.80048128  0.04906588
   0.74999989  0.30048723  0.45093744
   0.24999809  0.24943380  0.20400414
   0.24999868  0.25056737  0.70400372
   0.74999980  0.74938794  0.29599781
   0.74999845  0.75061217  0.79599746
unknown system                          
           1
     2.864986    0.000003   -0.000002
     0.000003    4.527506    0.000007
    -0.000002    0.000013    9.374059
   Mn   O 
   4   8
Direct configuration=    14
   0.25000224  0.99203504  0.86458317
   0.75000106  0.00791914  0.13541119
   0.75000033  0.49208332  0.63541052
   0.25000175  0.50796460  0.36458409
   0.24999855  0.70156213  0.54795160
   0.74999782  0.20152136  0.95205599
   0.24999981  0.79843910  0.04795125
   0.75000129  0.29847511  0.45205586
   0.24999907  0.24743664  0.20450584
   0.24999813  0.25256508  0.70450448
   0.75000128  0.74742840  0.29549394
   0.74999866  0.75257108  0.79549308
unknown system                          
           1
     2.861962    0.000004   -0.000001
     0.000005    4.521863    0.000006
    -0.000001    0.000013    9.363626
   Mn   O 
   4   8
Direct configuration=    15
   0.25000100  0.99351927  0.86468040
   0.75000114  0.00641813  0.13531208
   0.74999896  0.49358455  0.63531178
   0.25000190  0.50648043  0.36468179
   0.24999888  0.70248200  0.54745045
   0.74999832  0.20243004  0.95256097
   0.24999978  0.79751793  0.04744861
   0.75000192  0.29756748  0.45256021
   0.24999951  0.24653577  0.20473207
   0.24999789  0.25346620  0.70473029
   0.75000196  0.74654450  0.29526672
   0.74999876  0.75345470  0.79526563
unknown system                          
           1
     2.864697    0.000003    0.000000
     0.000004    4.511772   -0.000002
     0.000004   -0.000005    9.376300
   Mn   O 
   4   8
Direct configuration=    16
   0.24999768  0.99530213  0.86459398
   0.75000052  0.00465542  0.13540044
   0.74999638  0.49534619  0.63540121
   0.25000177  0.50469849  0.36459625
   0.24999939  0.70398761  0.54613870
   0.74999960  0.20391022  0.95386978
   0.25000040  0.79601085  0.04613615
   0.75000292  0.29608969  0.45386862
   0.25000071  0.24355851  0.20527627
   0.24999852  0.25644217  0.70527493
   0.75000245  0.74360392  0.29472287
   0.74999968  0.75639580  0.79472181
unknown system                          
           1
     2.871167    0.000002    0.000004
     0.000002    4.487897   -0.000022
     0.000016   -0.000046    9.406286
   Mn   O 
   4   8
Direct configuration=    17
   0.24998982  0.99952951  0.86438981
   0.74999905  0.00047583  0.13560919
   0.74999028  0.49952326  0.63561250
   0.25000145  0.50047330  0.36439414
   0.25000062  0.70755756  0.54303951
   0.75000261  0.20741991  0.95696201
   0.25000188  0.79243739  0.04303530
   0.75000527  0.29258567  0.45695992
   0.25000355  0.23649908  0.20656200
   0.25000001  0.26349856  0.70656170
   0.75000361  0.73663147  0.29343796
   0.75000185  0.76336948  0.79343697
unknown system                          
           1
     2.868609    0.000002    0.000003
     0.000002    4.497335   -0.000014
     0.000011   -0.000030    9.394433
   Mn   O 
   4   8
Direct configuration=    18
   0.24999292  0.99784957  0.86447025
   0.74999963  0.00213677  0.13552694
   0.74999268  0.49786331  0.63552924
   0.25000158  0.50215237  0.36447378
   0.25000013  0.70613889  0.54426069
   0.75000143  0.20602516  0.95574357
   0.25000129  0.79385748  0.04425714
   0.75000435  0.29397814  0.45574185
   0.25000243  0.23930445  0.20605539
   0.24999942  0.26069439  0.70605466
   0.75000315  0.73940229  0.29394426
   0.75000099  0.76059818  0.79394323
unknown system                          
           1
     2.869734    0.000001    0.000002
     0.000001    4.490565   -0.000019
     0.000011   -0.000041    9.410116
   Mn   O 
   4   8
Direct configuration=    19
   0.24999295  0.99944530  0.86499862
   0.74999987  0.00052427  0.13499863
   0.74999320  0.49947351  0.63500043
   0.25000205  0.50055798  0.36500048
   0.24999991  0.70669954  0.54352228
   0.75000123  0.20659109  0.95647538
   0.25000167  0.79329735  0.04351812
   0.75000420  0.29341321  0.45647438
   0.25000275  0.23610880  0.20666891
   0.24999885  0.26388885  0.70666867
   0.75000306  0.73620240  0.29333790
   0.75000027  0.76379869  0.79333720
unknown system                          
           1
     2.871814   -0.000001    0.000002
    -0.000003    4.478040   -0.000029
     0.000010   -0.000060    9.439131
   Mn   O 
   4   8
Direct configuration=    20
   0.24999302  0.00240191  0.86597449
   0.75000029 -0.00246342  0.13402285
   0.74999416  0.50245694  0.63402375
   0.25000291  0.49760384  0.36597328
   0.24999950  0.70773834  0.54215847
   0.75000086  0.20763965  0.95782700
   0.25000235  0.79225953  0.04215319
   0.75000392  0.29236651  0.45782733
   0.25000333  0.23018779  0.20780206
   0.24999779  0.26980766  0.70780271
   0.75000289  0.73027355  0.29221799
   0.74999896  0.76972871  0.79221789
unknown system                          
           1
     2.872187   -0.000001    0.000002
    -0.000003    4.475796   -0.000031
     0.000010   -0.000064    9.444332
   Mn   O 
   4   8
Direct configuration=    21
   0.24999303  0.00293336  0.86614888
   0.75000037 -0.00300046  0.13384848
   0.74999433  0.50299321  0.63384922
   0.25000307  0.49707284  0.36614711
   0.24999942  0.70792506  0.54191476
   0.75000080  0.20782813  0.95806853
   0.25000248  0.79207298  0.04190928
   0.75000387  0.29217837  0.45806909
   0.25000344  0.22912350  0.20800455
   0.24999760  0.27087156  0.70800537
   0.75000286  0.72920785  0.29201786
   0.74999873  0.77079462  0.79201787
unknown system                          
           1
     2.871241   -0.000001    0.000002
    -0.000003    4.477483   -0.000023
     0.000008   -0.000049    9.454860
   Mn   O 
   4   8
Direct configuration=    22
   0.24999592  0.00414877  0.86600659
   0.75000121 -0.00421531  0.13398620
   0.74999682  0.50420900  0.63398814
   0.25000322  0.49585664  0.36600610
   0.24999874  0.70845805  0.54186537
   0.74999912  0.20837365  0.95812171
   0.25000150  0.79153982  0.04186099
   0.75000206  0.29163218  0.45812007
   0.25000257  0.22611430  0.20879832
   0.24999609  0.27388089  0.70879905
   0.75000611  0.72618888  0.29122428
   0.74999664  0.77381414  0.79122418
unknown system                          
           1
     2.869500   -0.000001    0.000001
    -0.000002    4.480590   -0.000010
     0.000006   -0.000021    9.474246
   Mn   O 
   4   8
Direct configuration=    23
   0.25000125  0.00638583  0.86574488
   0.75000276 -0.00645135  0.13423949
   0.75000140  0.50644677  0.63424364
   0.25000350  0.49361811  0.36574674
   0.24999748  0.70943905  0.54177454
   0.74999604  0.20937773  0.95821953
   0.24999969  0.79055849  0.04177217
   0.74999872  0.29062688  0.45821384
   0.25000097  0.22057562  0.21025825
   0.24999329  0.27941981  0.71025882
   0.75001210  0.72063221  0.28976470
   0.74999280  0.77937185  0.78976440
unknown system                          
           1
     2.869977   -0.000006    0.000003
    -0.000011    4.491479   -0.000009
     0.000012   -0.000019    9.442636
   Mn   O 
   4   8
Direct configuration=    24
   0.25000015  0.00817715  0.86581964
   0.75000317 -0.00819225  0.13416994
   0.74999995  0.50819246  0.63417163
   0.25000499  0.49182726  0.36581956
   0.24999860  0.70924515  0.54152687
   0.74999278  0.20919996  0.95847714
   0.24999952  0.79075102  0.04152461
   0.74999906  0.29079879  0.45847242
   0.25000128  0.21720543  0.21154073
   0.24999579  0.28279193  0.71154099
   0.75000973  0.71725305  0.28846892
   0.74999496  0.78275104  0.78846855
unknown system                          
           1
     2.870343   -0.000011    0.000004
    -0.000018    4.499818   -0.000009
     0.000017   -0.000018    9.418432
   Mn   O 
   4   8
Direct configuration=    25
   0.24999932  0.00954547  0.86587707
   0.75000348 -0.00952206  0.13411651
   0.74999884  0.50952592  0.63411631
   0.25000614  0.49045929  0.36587550
   0.24999945  0.70909704  0.54133659
   0.74999029  0.20906418  0.95867506
   0.24999938  0.79089808  0.04133441
   0.74999932  0.29093012  0.45867108
   0.25000152  0.21463108  0.21252604
   0.24999772  0.28536777  0.71252605
   0.75000791  0.71467183  0.28747340
   0.74999663  0.78533228  0.78747297
unknown system                          
           1
     2.875220   -0.000009    0.000005
    -0.000015    4.518162   -0.000010
     0.000018   -0.000022    9.399841
   Mn   O 
   4   8
Direct configuration=    26
   0.24999661  0.01055211  0.86556619
   0.75000235 -0.01052391  0.13443222
   0.74999721  0.51052671  0.63443029
   0.25000621  0.48945030  0.36556411
   0.25000177  0.70899148  0.54077435
   0.74999185  0.20898923  0.95923780
   0.24999879  0.79100494  0.04077341
   0.74999990  0.29100452  0.45923548
   0.25000271  0.21164107  0.21336774
   0.24999925  0.28836059  0.71336751
   0.75000498  0.71165136  0.28662612
   0.74999836  0.78835260  0.78662579
unknown system                          
           1
     2.882808   -0.000007    0.000005
    -0.000011    4.546700   -0.000013
     0.000020   -0.000027    9.370919
   Mn   O 
   4   8
Direct configuration=    27
   0.24999241  0.01211180  0.86508158
   0.75000059 -0.01207616  0.13492433
   0.74999468  0.51207731  0.63491973
   0.25000634  0.48788698  0.36507872
   0.25000538  0.70882794  0.53989793
   0.74999426  0.20887310  0.96011500
   0.24999786  0.79117051  0.03989893
   0.75000081  0.29111979  0.46011526
   0.25000456  0.20700838  0.21467975
   0.25000163  0.29299765  0.71467916
   0.75000043  0.70697146  0.28530540
   0.75000105  0.79303225  0.78530521
unknown system                          
           1
     2.881317   -0.000003    0.000004
    -0.000006    4.565784   -0.000002
     0.000015   -0.000004    9.351800
   Mn   O 
   4   8
Direct configuration=    28
   0.24999231  0.01318050  0.86499055
   0.74999932 -0.01315391  0.13501752
   0.74999639  0.51315298  0.63501442
   0.25000269  0.48681662  0.36498989
   0.25000674  0.70798898  0.53922009
   0.74999739  0.20806434  0.96078867
   0.24999760  0.79201279  0.03922360
   0.75000152  0.29192849  0.46078789
   0.25000479  0.20341992  0.21530492
   0.25000116  0.29658778  0.71530479
   0.74999941  0.70335153  0.28467967
   0.75000068  0.79665098  0.78467899
unknown system                          
           1
     2.879486    0.000001    0.000002
     0.000000    4.589236    0.000013
     0.000009    0.000025    9.328306
   Mn   O 
   4   8
Direct configuration=    29
   0.24999218  0.01448824  0.86487846
   0.74999776 -0.01447273  0.13513227
   0.74999850  0.51446926  0.63513102
   0.24999821  0.48550684  0.36488050
   0.25000840  0.70696236  0.53838546
   0.75000123  0.20707468  0.96161819
   0.24999727  0.79304348  0.03839204
   0.75000240  0.29291807  0.46161612
   0.25000508  0.19902880  0.21607471
   0.25000057  0.30098095  0.71607513
   0.74999818  0.69892190  0.28390918
   0.75000022  0.80107914  0.78390790
unknown system                          
           1
     2.877517   -0.000002   -0.000001
    -0.000004    4.598090    0.000017
    -0.000000    0.000034    9.340804
   Mn   O 
   4   8
Direct configuration=    30
   0.24999597  0.01544168  0.86505076
   0.74999910 -0.01538521  0.13496469
   0.75000179  0.51538713  0.63496249
   0.24999859  0.48455563  0.36505150
   0.25000528  0.70665089  0.53817346
   0.75000050  0.20673595  0.96182884
   0.24999813  0.79335108  0.03817926
   0.75000173  0.29325726  0.46182732
   0.25000183  0.19783425  0.21640663
   0.24999986  0.30217253  0.71640825
   0.74999875  0.69774902  0.28357494
   0.74999848  0.80225078  0.78357284
unknown system                          
           1
     2.876340   -0.000003   -0.000003
    -0.000006    4.603381    0.000019
    -0.000006    0.000038    9.348271
   Mn   O 
   4   8
Direct configuration=    31
   0.24999824  0.01601025  0.86515357
   0.74999989 -0.01592935  0.13486471
   0.75000376  0.51593450  0.63486194
   0.24999882  0.48398839  0.36515353
   0.25000341  0.70646514  0.53804696
   0.75000007  0.20653394  0.96195454
   0.24999864  0.79353452  0.03805230
   0.75000134  0.29345954  0.46195334
   0.24999989  0.19712189  0.21660468
   0.24999943  0.30288311  0.71660702
   0.74999909  0.69704959  0.28337550
   0.74999743  0.80294948  0.78337292
unknown system                          
           1
     2.873988   -0.000004   -0.000003
    -0.000007    4.602672    0.000017
    -0.000007    0.000035    9.358284
   Mn   O 
   4   8
Direct configuration=    32
   0.24999997  0.01657458  0.86498272
   0.75000044 -0.01652491  0.13502990
   0.75000396  0.51652950  0.63502687
   0.24999982  0.48342323  0.36498065
   0.25000110  0.70644893  0.53785004
   0.74999970  0.20650615  0.96215373
   0.24999897  0.79355036  0.03785363
   0.75000022  0.29348800  0.46215526
   0.24999840  0.19639349  0.21683188
   0.25000023  0.30361118  0.71683368
   0.74999983  0.69634440  0.28315235
   0.74999735  0.80365610  0.78315027
