  12  12   1   0
  0.1021495E+02  0.2869097E-09  0.4604828E-09  0.9278097E-09  0.5000000E-15
  1.000000000000000E-004
  CAR 
 unknown system                          
     10.44379120    -51.59787056  301      3.67090979      1.00000000
    -51.598  0.0000E+00  0.0000E+00  0.0000E+00  0.0000E+00
    -51.391  0.0000E+00  0.0000E+00  0.0000E+00  0.0000E+00
    -51.184  0.0000E+00  0.0000E+00  0.0000E+00  0.0000E+00
    -50.977  0.0000E+00  0.0000E+00  0.0000E+00  0.0000E+00
    -50.771  0.0000E+00  0.0000E+00  0.0000E+00  0.0000E+00
    -50.564  0.0000E+00  0.0000E+00  0.0000E+00  0.0000E+00
    -50.357  0.0000E+00  0.0000E+00  0.0000E+00  0.0000E+00
    -50.150  0.0000E+00  0.0000E+00  0.0000E+00  0.0000E+00
    -49.943  0.0000E+00  0.0000E+00  0.0000E+00  0.0000E+00
    -49.737  0.0000E+00  0.0000E+00  0.0000E+00  0.0000E+00
    -49.530  0.0000E+00  0.0000E+00  0.0000E+00  0.0000E+00
    -49.323  0.0000E+00  0.0000E+00  0.0000E+00  0.0000E+00
    -49.116  0.0000E+00  0.0000E+00  0.0000E+00  0.0000E+00
    -48.909  0.0000E+00  0.0000E+00  0.0000E+00  0.0000E+00
    -48.703  0.3058E-01  0.3058E-01  0.6324E-02  0.6324E-02
    -48.496  0.0000E+00  0.0000E+00  0.3015E-01  0.3015E-01
    -48.289  0.0000E+00  0.0000E+00  0.3015E-01  0.3015E-01
    -48.082  0.0000E+00  0.0000E+00  0.3015E-01  0.3015E-01
    -47.875  0.0000E+00  0.0000E+00  0.3015E-01  0.3015E-01
    -47.669  0.0000E+00  0.0000E+00  0.3015E-01  0.3015E-01
    -47.462  0.0000E+00  0.0000E+00  0.3015E-01  0.3015E-01
    -47.255  0.0000E+00  0.0000E+00  0.3015E-01  0.3015E-01
    -47.048  0.0000E+00  0.0000E+00  0.3015E-01  0.3015E-01
    -46.841  0.0000E+00  0.0000E+00  0.3015E-01  0.3015E-01
    -46.635  0.0000E+00  0.0000E+00  0.3015E-01  0.3015E-01
    -46.428  0.0000E+00  0.0000E+00  0.3015E-01  0.3015E-01
    -46.221  0.0000E+00  0.0000E+00  0.3015E-01  0.3015E-01
    -46.014  0.0000E+00  0.0000E+00  0.3015E-01  0.3015E-01
    -45.807  0.0000E+00  0.0000E+00  0.3015E-01  0.3015E-01
    -45.601  0.0000E+00  0.0000E+00  0.3015E-01  0.3015E-01
    -45.394  0.0000E+00  0.0000E+00  0.3015E-01  0.3015E-01
    -45.187  0.0000E+00  0.0000E+00  0.3015E-01  0.3015E-01
    -44.980  0.0000E+00  0.0000E+00  0.3015E-01  0.3015E-01
    -44.773  0.2034E-01  0.2034E-01  0.3938E-01  0.3938E-01
    -44.566  0.4859E-01  0.4859E-01  0.6030E-01  0.6030E-01
    -44.360  0.0000E+00  0.0000E+00  0.6030E-01  0.6030E-01
    -44.153  0.0000E+00  0.0000E+00  0.6030E-01  0.6030E-01
    -43.946  0.0000E+00  0.0000E+00  0.6030E-01  0.6030E-01
    -43.739  0.0000E+00  0.0000E+00  0.6030E-01  0.6030E-01
    -43.532  0.0000E+00  0.0000E+00  0.6030E-01  0.6030E-01
    -43.326  0.0000E+00  0.0000E+00  0.6030E-01  0.6030E-01
    -43.119  0.0000E+00  0.0000E+00  0.6030E-01  0.6030E-01
    -42.912  0.0000E+00  0.0000E+00  0.6030E-01  0.6030E-01
    -42.705  0.0000E+00  0.0000E+00  0.6030E-01  0.6030E-01
    -42.498  0.0000E+00  0.0000E+00  0.6030E-01  0.6030E-01
    -42.292  0.0000E+00  0.0000E+00  0.6030E-01  0.6030E-01
    -42.085  0.0000E+00  0.0000E+00  0.6030E-01  0.6030E-01
    -41.878  0.0000E+00  0.0000E+00  0.6030E-01  0.6030E-01
    -41.671  0.0000E+00  0.0000E+00  0.6030E-01  0.6030E-01
    -41.464  0.0000E+00  0.0000E+00  0.6030E-01  0.6030E-01
    -41.258  0.0000E+00  0.0000E+00  0.6030E-01  0.6030E-01
    -41.051  0.0000E+00  0.0000E+00  0.6030E-01  0.6030E-01
    -40.844  0.0000E+00  0.0000E+00  0.6030E-01  0.6030E-01
    -40.637  0.0000E+00  0.0000E+00  0.6030E-01  0.6030E-01
    -40.430  0.0000E+00  0.0000E+00  0.6030E-01  0.6030E-01
    -40.224  0.0000E+00  0.0000E+00  0.6030E-01  0.6030E-01
    -40.017  0.0000E+00  0.0000E+00  0.6030E-01  0.6030E-01
    -39.810  0.0000E+00  0.0000E+00  0.6030E-01  0.6030E-01
    -39.603  0.0000E+00  0.0000E+00  0.6030E-01  0.6030E-01
    -39.396  0.0000E+00  0.0000E+00  0.6030E-01  0.6030E-01
    -39.190  0.0000E+00  0.0000E+00  0.6030E-01  0.6030E-01
    -38.983  0.0000E+00  0.0000E+00  0.6030E-01  0.6030E-01
    -38.776  0.0000E+00  0.0000E+00  0.6030E-01  0.6030E-01
    -38.569  0.0000E+00  0.0000E+00  0.6030E-01  0.6030E-01
    -38.362  0.0000E+00  0.0000E+00  0.6030E-01  0.6030E-01
    -38.156  0.0000E+00  0.0000E+00  0.6030E-01  0.6030E-01
    -37.949  0.0000E+00  0.0000E+00  0.6030E-01  0.6030E-01
    -37.742  0.0000E+00  0.0000E+00  0.6030E-01  0.6030E-01
    -37.535  0.0000E+00  0.0000E+00  0.6030E-01  0.6030E-01
    -37.328  0.0000E+00  0.0000E+00  0.6030E-01  0.6030E-01
    -37.121  0.0000E+00  0.0000E+00  0.6030E-01  0.6030E-01
    -36.915  0.0000E+00  0.0000E+00  0.6030E-01  0.6030E-01
    -36.708  0.0000E+00  0.0000E+00  0.6030E-01  0.6030E-01
    -36.501  0.0000E+00  0.0000E+00  0.6030E-01  0.6030E-01
    -36.294  0.0000E+00  0.0000E+00  0.6030E-01  0.6030E-01
    -36.087  0.0000E+00  0.0000E+00  0.6030E-01  0.6030E-01
    -35.881  0.0000E+00  0.0000E+00  0.6030E-01  0.6030E-01
    -35.674  0.0000E+00  0.0000E+00  0.6030E-01  0.6030E-01
    -35.467  0.0000E+00  0.0000E+00  0.6030E-01  0.6030E-01
    -35.260  0.0000E+00  0.0000E+00  0.6030E-01  0.6030E-01
    -35.053  0.0000E+00  0.0000E+00  0.6030E-01  0.6030E-01
    -34.847  0.0000E+00  0.0000E+00  0.6030E-01  0.6030E-01
    -34.640  0.0000E+00  0.0000E+00  0.6030E-01  0.6030E-01
    -34.433  0.0000E+00  0.0000E+00  0.6030E-01  0.6030E-01
    -34.226  0.0000E+00  0.0000E+00  0.6030E-01  0.6030E-01
    -34.019  0.0000E+00  0.0000E+00  0.6030E-01  0.6030E-01
    -33.813  0.0000E+00  0.0000E+00  0.6030E-01  0.6030E-01
    -33.606  0.0000E+00  0.0000E+00  0.6030E-01  0.6030E-01
    -33.399  0.0000E+00  0.0000E+00  0.6030E-01  0.6030E-01
    -33.192  0.0000E+00  0.0000E+00  0.6030E-01  0.6030E-01
    -32.985  0.0000E+00  0.0000E+00  0.6030E-01  0.6030E-01
    -32.779  0.0000E+00  0.0000E+00  0.6030E-01  0.6030E-01
    -32.572  0.0000E+00  0.0000E+00  0.6030E-01  0.6030E-01
    -32.365  0.0000E+00  0.0000E+00  0.6030E-01  0.6030E-01
    -32.158  0.0000E+00  0.0000E+00  0.6030E-01  0.6030E-01
    -31.951  0.0000E+00  0.0000E+00  0.6030E-01  0.6030E-01
    -31.745  0.0000E+00  0.0000E+00  0.6030E-01  0.6030E-01
    -31.538  0.0000E+00  0.0000E+00  0.6030E-01  0.6030E-01
    -31.331  0.0000E+00  0.0000E+00  0.6030E-01  0.6030E-01
    -31.124  0.0000E+00  0.0000E+00  0.6030E-01  0.6030E-01
    -30.917  0.0000E+00  0.0000E+00  0.6030E-01  0.6030E-01
    -30.711  0.0000E+00  0.0000E+00  0.6030E-01  0.6030E-01
    -30.504  0.0000E+00  0.0000E+00  0.6030E-01  0.6030E-01
    -30.297  0.0000E+00  0.0000E+00  0.6030E-01  0.6030E-01
    -30.090  0.0000E+00  0.0000E+00  0.6030E-01  0.6030E-01
    -29.883  0.0000E+00  0.0000E+00  0.6030E-01  0.6030E-01
    -29.676  0.0000E+00  0.0000E+00  0.6030E-01  0.6030E-01
    -29.470  0.0000E+00  0.0000E+00  0.6030E-01  0.6030E-01
    -29.263  0.0000E+00  0.0000E+00  0.6030E-01  0.6030E-01
    -29.056  0.0000E+00  0.0000E+00  0.6030E-01  0.6030E-01
    -28.849  0.0000E+00  0.0000E+00  0.6030E-01  0.6030E-01
    -28.642  0.0000E+00  0.0000E+00  0.6030E-01  0.6030E-01
    -28.436  0.0000E+00  0.0000E+00  0.6030E-01  0.6030E-01
    -28.229  0.0000E+00  0.0000E+00  0.6030E-01  0.6030E-01
    -28.022  0.0000E+00  0.0000E+00  0.6030E-01  0.6030E-01
    -27.815  0.0000E+00  0.0000E+00  0.6030E-01  0.6030E-01
    -27.608  0.0000E+00  0.0000E+00  0.6030E-01  0.6030E-01
    -27.402  0.0000E+00  0.0000E+00  0.6030E-01  0.6030E-01
    -27.195  0.0000E+00  0.0000E+00  0.6030E-01  0.6030E-01
    -26.988  0.0000E+00  0.0000E+00  0.6030E-01  0.6030E-01
    -26.781  0.0000E+00  0.0000E+00  0.6030E-01  0.6030E-01
    -26.574  0.0000E+00  0.0000E+00  0.6030E-01  0.6030E-01
    -26.368  0.0000E+00  0.0000E+00  0.6030E-01  0.6030E-01
    -26.161  0.0000E+00  0.0000E+00  0.6030E-01  0.6030E-01
    -25.954  0.0000E+00  0.0000E+00  0.6030E-01  0.6030E-01
    -25.747  0.0000E+00  0.0000E+00  0.6030E-01  0.6030E-01
    -25.540  0.0000E+00  0.0000E+00  0.6030E-01  0.6030E-01
    -25.334  0.0000E+00  0.0000E+00  0.6030E-01  0.6030E-01
    -25.127  0.0000E+00  0.0000E+00  0.6030E-01  0.6030E-01
    -24.920  0.0000E+00  0.0000E+00  0.6030E-01  0.6030E-01
    -24.713  0.0000E+00  0.0000E+00  0.6030E-01  0.6030E-01
    -24.506  0.0000E+00  0.0000E+00  0.6030E-01  0.6030E-01
    -24.300  0.0000E+00  0.0000E+00  0.6030E-01  0.6030E-01
    -24.093  0.0000E+00  0.0000E+00  0.6030E-01  0.6030E-01
    -23.886  0.0000E+00  0.0000E+00  0.6030E-01  0.6030E-01
    -23.679  0.0000E+00  0.0000E+00  0.6030E-01  0.6030E-01
    -23.472  0.0000E+00  0.0000E+00  0.6030E-01  0.6030E-01
    -23.266  0.0000E+00  0.0000E+00  0.6030E-01  0.6030E-01
    -23.059  0.0000E+00  0.0000E+00  0.6030E-01  0.6030E-01
    -22.852  0.0000E+00  0.0000E+00  0.6030E-01  0.6030E-01
    -22.645  0.0000E+00  0.0000E+00  0.6030E-01  0.6030E-01
    -22.438  0.0000E+00  0.0000E+00  0.6030E-01  0.6030E-01
    -22.231  0.0000E+00  0.0000E+00  0.6030E-01  0.6030E-01
    -22.025  0.0000E+00  0.0000E+00  0.6030E-01  0.6030E-01
    -21.818  0.0000E+00  0.0000E+00  0.6030E-01  0.6030E-01
    -21.611  0.0000E+00  0.0000E+00  0.6030E-01  0.6030E-01
    -21.404  0.0000E+00  0.0000E+00  0.6030E-01  0.6030E-01
    -21.197  0.0000E+00  0.0000E+00  0.6030E-01  0.6030E-01
    -20.991  0.0000E+00  0.0000E+00  0.6030E-01  0.6030E-01
    -20.784  0.0000E+00  0.0000E+00  0.6030E-01  0.6030E-01
    -20.577  0.0000E+00  0.0000E+00  0.6030E-01  0.6030E-01
    -20.370  0.0000E+00  0.0000E+00  0.6030E-01  0.6030E-01
    -20.163  0.0000E+00  0.0000E+00  0.6030E-01  0.6030E-01
    -19.957  0.0000E+00  0.0000E+00  0.6030E-01  0.6030E-01
    -19.750  0.0000E+00  0.0000E+00  0.6030E-01  0.6030E-01
    -19.543  0.0000E+00  0.0000E+00  0.6030E-01  0.6030E-01
    -19.336  0.0000E+00  0.0000E+00  0.6030E-01  0.6030E-01
    -19.129  0.0000E+00  0.0000E+00  0.6030E-01  0.6030E-01
    -18.923  0.0000E+00  0.0000E+00  0.6030E-01  0.6030E-01
    -18.716  0.0000E+00  0.0000E+00  0.6030E-01  0.6030E-01
    -18.509  0.0000E+00  0.0000E+00  0.6030E-01  0.6030E-01
    -18.302  0.0000E+00  0.0000E+00  0.6030E-01  0.6030E-01
    -18.095  0.0000E+00  0.0000E+00  0.6030E-01  0.6030E-01
    -17.889  0.0000E+00  0.0000E+00  0.6030E-01  0.6030E-01
    -17.682  0.0000E+00  0.0000E+00  0.6030E-01  0.6030E-01
    -17.475  0.0000E+00  0.0000E+00  0.6030E-01  0.6030E-01
    -17.268  0.0000E+00  0.0000E+00  0.6030E-01  0.6030E-01
    -17.061  0.0000E+00  0.0000E+00  0.6030E-01  0.6030E-01
    -16.855  0.0000E+00  0.0000E+00  0.6030E-01  0.6030E-01
    -16.648  0.8683E-03  0.8683E-03  0.6050E-01  0.6050E-01
    -16.441  0.1496E-02  0.1496E-02  0.6131E-01  0.6131E-01
    -16.234  0.3829E-02  0.3829E-02  0.6291E-01  0.6291E-01
    -16.027  0.2662E-02  0.2662E-02  0.6444E-01  0.6444E-01
    -15.821  0.3110E-02  0.3110E-02  0.6611E-01  0.6611E-01
    -15.614  0.3313E-02  0.3313E-02  0.6754E-01  0.6754E-01
    -15.407  0.5000E-02  0.5000E-02  0.6979E-01  0.6979E-01
    -15.200  0.4504E-02  0.4504E-02  0.7335E-01  0.7335E-01
    -14.993  0.8356E-02  0.8356E-02  0.7867E-01  0.7867E-01
    -14.786  0.3683E-01  0.3683E-01  0.9172E-01  0.9172E-01
    -14.580  0.6400E-02  0.6400E-02  0.1004E+00  0.1004E+00
    -14.373  0.0000E+00  0.0000E+00  0.1005E+00  0.1005E+00
    -14.166  0.0000E+00  0.0000E+00  0.1005E+00  0.1005E+00
    -13.959  0.0000E+00  0.0000E+00  0.1005E+00  0.1005E+00
    -13.752  0.0000E+00  0.0000E+00  0.1005E+00  0.1005E+00
    -13.546  0.0000E+00  0.0000E+00  0.1005E+00  0.1005E+00
    -13.339  0.0000E+00  0.0000E+00  0.1005E+00  0.1005E+00
    -13.132  0.0000E+00  0.0000E+00  0.1005E+00  0.1005E+00
    -12.925  0.0000E+00  0.0000E+00  0.1005E+00  0.1005E+00
    -12.718  0.0000E+00  0.0000E+00  0.1005E+00  0.1005E+00
    -12.512  0.0000E+00  0.0000E+00  0.1005E+00  0.1005E+00
    -12.305  0.0000E+00  0.0000E+00  0.1005E+00  0.1005E+00
    -12.098  0.0000E+00  0.0000E+00  0.1005E+00  0.1005E+00
    -11.891  0.0000E+00  0.0000E+00  0.1005E+00  0.1005E+00
    -11.684  0.0000E+00  0.0000E+00  0.1005E+00  0.1005E+00
    -11.478  0.0000E+00  0.0000E+00  0.1005E+00  0.1005E+00
    -11.271  0.0000E+00  0.0000E+00  0.1005E+00  0.1005E+00
    -11.064  0.0000E+00  0.0000E+00  0.1005E+00  0.1005E+00
    -10.857  0.0000E+00  0.0000E+00  0.1005E+00  0.1005E+00
    -10.650  0.0000E+00  0.0000E+00  0.1005E+00  0.1005E+00
    -10.444  0.0000E+00  0.0000E+00  0.1005E+00  0.1005E+00
    -10.237  0.0000E+00  0.0000E+00  0.1005E+00  0.1005E+00
    -10.030  0.0000E+00  0.0000E+00  0.1005E+00  0.1005E+00
     -9.823  0.0000E+00  0.0000E+00  0.1005E+00  0.1005E+00
     -9.616  0.0000E+00  0.0000E+00  0.1005E+00  0.1005E+00
     -9.410  0.0000E+00  0.0000E+00  0.1005E+00  0.1005E+00
     -9.203  0.0000E+00  0.0000E+00  0.1005E+00  0.1005E+00
     -8.996  0.0000E+00  0.0000E+00  0.1005E+00  0.1005E+00
     -8.789  0.0000E+00  0.0000E+00  0.1005E+00  0.1005E+00
     -8.582  0.0000E+00  0.0000E+00  0.1005E+00  0.1005E+00
     -8.376  0.0000E+00  0.0000E+00  0.1005E+00  0.1005E+00
     -8.169  0.0000E+00  0.0000E+00  0.1005E+00  0.1005E+00
     -7.962  0.0000E+00  0.0000E+00  0.1005E+00  0.1005E+00
     -7.755  0.0000E+00  0.0000E+00  0.1005E+00  0.1005E+00
     -7.548  0.0000E+00  0.0000E+00  0.1005E+00  0.1005E+00
     -7.341  0.0000E+00  0.0000E+00  0.1005E+00  0.1005E+00
     -7.135  0.0000E+00  0.0000E+00  0.1005E+00  0.1005E+00
     -6.928  0.0000E+00  0.0000E+00  0.1005E+00  0.1005E+00
     -6.721  0.0000E+00  0.0000E+00  0.1005E+00  0.1005E+00
     -6.514  0.0000E+00  0.0000E+00  0.1005E+00  0.1005E+00
     -6.307  0.0000E+00  0.0000E+00  0.1005E+00  0.1005E+00
     -6.101  0.0000E+00  0.0000E+00  0.1005E+00  0.1005E+00
     -5.894  0.0000E+00  0.0000E+00  0.1005E+00  0.1005E+00
     -5.687  0.0000E+00  0.0000E+00  0.1005E+00  0.1005E+00
     -5.480  0.0000E+00  0.0000E+00  0.1005E+00  0.1005E+00
     -5.273  0.0000E+00  0.0000E+00  0.1005E+00  0.1005E+00
     -5.067  0.0000E+00  0.0000E+00  0.1005E+00  0.1005E+00
     -4.860  0.0000E+00  0.0000E+00  0.1005E+00  0.1005E+00
     -4.653  0.0000E+00  0.0000E+00  0.1005E+00  0.1005E+00
     -4.446  0.0000E+00  0.0000E+00  0.1005E+00  0.1005E+00
     -4.239  0.0000E+00  0.0000E+00  0.1005E+00  0.1005E+00
     -4.033  0.0000E+00  0.0000E+00  0.1005E+00  0.1005E+00
     -3.826  0.0000E+00  0.0000E+00  0.1005E+00  0.1005E+00
     -3.619  0.0000E+00  0.0000E+00  0.1005E+00  0.1005E+00
     -3.412  0.1119E-03  0.1119E-03  0.1005E+00  0.1005E+00
     -3.205  0.1178E-02  0.1178E-02  0.1010E+00  0.1010E+00
     -2.999  0.2218E-02  0.2218E-02  0.1023E+00  0.1023E+00
     -2.792  0.6785E-02  0.6785E-02  0.1051E+00  0.1051E+00
     -2.585  0.4161E-02  0.4161E-02  0.1078E+00  0.1078E+00
     -2.378  0.1046E-01  0.1046E-01  0.1134E+00  0.1134E+00
     -2.171  0.9043E-02  0.9043E-02  0.1184E+00  0.1184E+00
     -1.965  0.1192E-01  0.1192E-01  0.1248E+00  0.1248E+00
     -1.758  0.1605E-01  0.1605E-01  0.1324E+00  0.1324E+00
     -1.551  0.8973E-02  0.8974E-02  0.1398E+00  0.1398E+00
     -1.344  0.5381E-02  0.5381E-02  0.1420E+00  0.1420E+00
     -1.137  0.1155E-01  0.1155E-01  0.1470E+00  0.1470E+00
     -0.931  0.4986E-02  0.4986E-02  0.1511E+00  0.1511E+00
     -0.724  0.8957E-02  0.8957E-02  0.1546E+00  0.1546E+00
     -0.517  0.9573E-02  0.9573E-02  0.1591E+00  0.1591E+00
     -0.310  0.5459E-02  0.5459E-02  0.1628E+00  0.1628E+00
     -0.103  0.5092E-02  0.5092E-02  0.1660E+00  0.1660E+00
      0.104  0.1537E-01  0.1537E-01  0.1720E+00  0.1720E+00
      0.310  0.6725E-02  0.6725E-02  0.1766E+00  0.1766E+00
      0.517  0.9743E-02  0.9743E-02  0.1816E+00  0.1816E+00
      0.724  0.9507E-02  0.9507E-02  0.1875E+00  0.1875E+00
      0.931  0.1052E-01  0.1052E-01  0.1934E+00  0.1934E+00
      1.138  0.8177E-02  0.8178E-02  0.1981E+00  0.1981E+00
      1.344  0.5234E-02  0.5234E-02  0.2009E+00  0.2009E+00
      1.551  0.1273E-01  0.1273E-01  0.2074E+00  0.2074E+00
      1.758  0.1050E-01  0.1050E-01  0.2131E+00  0.2131E+00
      1.965  0.8801E-02  0.8801E-02  0.2180E+00  0.2180E+00
      2.172  0.7600E-02  0.7600E-02  0.2227E+00  0.2227E+00
      2.378  0.7791E-02  0.7791E-02  0.2280E+00  0.2280E+00
      2.585  0.1305E-01  0.1305E-01  0.2337E+00  0.2337E+00
      2.792  0.6810E-02  0.6810E-02  0.2387E+00  0.2387E+00
      2.999  0.8663E-02  0.8663E-02  0.2432E+00  0.2432E+00
      3.206  0.1028E-01  0.1028E-01  0.2484E+00  0.2484E+00
      3.412  0.2421E-02  0.2421E-02  0.2508E+00  0.2508E+00
      3.619  0.1736E-03  0.1736E-03  0.2513E+00  0.2513E+00
      3.826  0.0000E+00  0.0000E+00  0.2513E+00  0.2513E+00
      4.033  0.0000E+00  0.0000E+00  0.2513E+00  0.2513E+00
      4.240  0.0000E+00  0.0000E+00  0.2513E+00  0.2513E+00
      4.446  0.0000E+00  0.0000E+00  0.2513E+00  0.2513E+00
      4.653  0.0000E+00  0.0000E+00  0.2513E+00  0.2513E+00
      4.860  0.0000E+00  0.0000E+00  0.2513E+00  0.2513E+00
      5.067  0.0000E+00  0.0000E+00  0.2513E+00  0.2513E+00
      5.274  0.9589E-03  0.9589E-03  0.2515E+00  0.2515E+00
      5.480  0.3762E-02  0.3762E-02  0.2538E+00  0.2538E+00
      5.687  0.1621E-01  0.1621E-01  0.2615E+00  0.2615E+00
      5.894  0.1190E-01  0.1190E-01  0.2664E+00  0.2664E+00
      6.101  0.3353E-02  0.3353E-02  0.2707E+00  0.2707E+00
      6.308  0.9836E-02  0.9836E-02  0.2749E+00  0.2749E+00
      6.514  0.1772E-01  0.1772E-01  0.2837E+00  0.2837E+00
      6.721  0.9968E-02  0.9968E-02  0.2896E+00  0.2896E+00
      6.928  0.1522E-01  0.1522E-01  0.2968E+00  0.2968E+00
      7.135  0.3808E-02  0.3808E-02  0.2995E+00  0.2995E+00
      7.342  0.1976E-04  0.1972E-04  0.3001E+00  0.3001E+00
      7.549  0.4450E-03  0.4447E-03  0.3012E+00  0.3012E+00
      7.755  0.0000E+00  0.0000E+00  0.3015E+00  0.3015E+00
      7.962  0.0000E+00  0.0000E+00  0.3015E+00  0.3015E+00
      8.169  0.0000E+00  0.0000E+00  0.3015E+00  0.3015E+00
      8.376  0.0000E+00  0.0000E+00  0.3015E+00  0.3015E+00
      8.583  0.0000E+00  0.0000E+00  0.3015E+00  0.3015E+00
      8.789  0.0000E+00  0.0000E+00  0.3015E+00  0.3015E+00
      8.996  0.0000E+00  0.0000E+00  0.3015E+00  0.3015E+00
      9.203  0.0000E+00  0.0000E+00  0.3015E+00  0.3015E+00
      9.410  0.0000E+00  0.0000E+00  0.3015E+00  0.3015E+00
      9.617  0.0000E+00  0.0000E+00  0.3015E+00  0.3015E+00
      9.823  0.0000E+00  0.0000E+00  0.3015E+00  0.3015E+00
     10.030  0.0000E+00  0.0000E+00  0.3015E+00  0.3015E+00
     10.237  0.0000E+00  0.0000E+00  0.3015E+00  0.3015E+00
     10.444  0.0000E+00  0.0000E+00  0.3015E+00  0.3015E+00
     10.44379120    -51.59787056  301      3.67090979      1.00000000
    -51.598  0.0000E+00  0.0000E+00  0.0000E+00  0.0000E+00  0.0000E+00  0.0000E+00  0.0000E+00  0.0000E+00  0.0000E+00  0.0000E+00  0.0000E+00  0.0000E+00  0.0000E+00  0.0000E+00  0.0000E+00  0.0000E+00  0.0000E+00  0.0000E+00
    -51.391  0.0000E+00  0.0000E+00  0.0000E+00  0.0000E+00  0.0000E+00  0.0000E+00  0.0000E+00  0.0000E+00  0.0000E+00  0.0000E+00  0.0000E+00  0.0000E+00  0.0000E+00  0.0000E+00  0.0000E+00  0.0000E+00  0.0000E+00  0.0000E+00
    -51.184  0.0000E+00  0.0000E+00  0.0000E+00  0.0000E+00  0.0000E+00  0.0000E+00  0.0000E+00  0.0000E+00  0.0000E+00  0.0000E+00  0.0000E+00  0.0000E+00  0.0000E+00  0.0000E+00  0.0000E+00  0.0000E+00  0.0000E+00  0.0000E+00
    -50.977  0.0000E+00  0.0000E+00  0.0000E+00  0.0000E+00  0.0000E+00  0.0000E+00  0.0000E+00  0.0000E+00  0.0000E+00  0.0000E+00  0.0000E+00  0.0000E+00  0.0000E+00  0.0000E+00  0.0000E+00  0.0000E+00  0.0000E+00  0.0000E+00
    -50.771  0.0000E+00  0.0000E+00  0.0000E+00  0.0000E+00  0.0000E+00  0.0000E+00  0.0000E+00  0.0000E+00  0.0000E+00  0.0000E+00  0.0000E+00  0.0000E+00  0.0000E+00  0.0000E+00  0.0000E+00  0.0000E+00  0.0000E+00  0.0000E+00
    -50.564  0.0000E+00  0.0000E+00  0.0000E+00  0.0000E+00  0.0000E+00  0.0000E+00  0.0000E+00  0.0000E+00  0.0000E+00  0.0000E+00  0.0000E+00  0.0000E+00  0.0000E+00  0.0000E+00  0.0000E+00  0.0000E+00  0.0000E+00  0.0000E+00
    -50.357  0.0000E+00  0.0000E+00  0.0000E+00  0.0000E+00  0.0000E+00  0.0000E+00  0.0000E+00  0.0000E+00  0.0000E+00  0.0000E+00  0.0000E+00  0.0000E+00  0.0000E+00  0.0000E+00  0.0000E+00  0.0000E+00  0.0000E+00  0.0000E+00
    -50.150  0.0000E+00  0.0000E+00  0.0000E+00  0.0000E+00  0.0000E+00  0.0000E+00  0.0000E+00  0.0000E+00  0.0000E+00  0.0000E+00  0.0000E+00  0.0000E+00  0.0000E+00  0.0000E+00  0.0000E+00  0.0000E+00  0.0000E+00  0.0000E+00
    -49.943  0.0000E+00  0.0000E+00  0.0000E+00  0.0000E+00  0.0000E+00  0.0000E+00  0.0000E+00  0.0000E+00  0.0000E+00  0.0000E+00  0.0000E+00  0.0000E+00  0.0000E+00  0.0000E+00  0.0000E+00  0.0000E+00  0.0000E+00  0.0000E+00
    -49.737  0.0000E+00  0.0000E+00  0.0000E+00  0.0000E+00  0.0000E+00  0.0000E+00  0.0000E+00  0.0000E+00  0.0000E+00  0.0000E+00  0.0000E+00  0.0000E+00  0.0000E+00  0.0000E+00  0.0000E+00  0.0000E+00  0.0000E+00  0.0000E+00
    -49.530  0.0000E+00  0.0000E+00  0.0000E+00  0.0000E+00  0.0000E+00  0.0000E+00  0.0000E+00  0.0000E+00  0.0000E+00  0.0000E+00  0.0000E+00  0.0000E+00  0.0000E+00  0.0000E+00  0.0000E+00  0.0000E+00  0.0000E+00  0.0000E+00
    -49.323  0.0000E+00  0.0000E+00  0.0000E+00  0.0000E+00  0.0000E+00  0.0000E+00  0.0000E+00  0.0000E+00  0.0000E+00  0.0000E+00  0.0000E+00  0.0000E+00  0.0000E+00  0.0000E+00  0.0000E+00  0.0000E+00  0.0000E+00  0.0000E+00
    -49.116  0.0000E+00  0.0000E+00  0.0000E+00  0.0000E+00  0.0000E+00  0.0000E+00  0.0000E+00  0.0000E+00  0.0000E+00  0.0000E+00  0.0000E+00  0.0000E+00  0.0000E+00  0.0000E+00  0.0000E+00  0.0000E+00  0.0000E+00  0.0000E+00
    -48.909  0.0000E+00  0.0000E+00  0.0000E+00  0.0000E+00  0.0000E+00  0.0000E+00  0.0000E+00  0.0000E+00  0.0000E+00  0.0000E+00  0.0000E+00  0.0000E+00  0.0000E+00  0.0000E+00  0.0000E+00  0.0000E+00  0.0000E+00  0.0000E+00
    -48.703  0.4472E-05  0.1689E-04  0.5667E-05  0.2876E-04  0.8845E-04  0.1342E-03  0.3622E-05  0.3017E+01  0.2117E-07  0.5213E-06  0.1000E-05  0.1861E-06  0.4603E-05  0.6125E-05  0.6926E-06  0.3472E-05  0.6617E-07  0.1895E-04
    -48.496  0.0000E+00  0.0000E+00  0.0000E+00  0.0000E+00  0.0000E+00  0.0000E+00  0.0000E+00  0.0000E+00  0.0000E+00  0.0000E+00  0.0000E+00  0.0000E+00  0.0000E+00  0.0000E+00  0.0000E+00  0.0000E+00  0.0000E+00  0.0000E+00
    -48.289  0.0000E+00  0.0000E+00  0.0000E+00  0.0000E+00  0.0000E+00  0.0000E+00  0.0000E+00  0.0000E+00  0.0000E+00  0.0000E+00  0.0000E+00  0.0000E+00  0.0000E+00  0.0000E+00  0.0000E+00  0.0000E+00  0.0000E+00  0.0000E+00
    -48.082  0.0000E+00  0.0000E+00  0.0000E+00  0.0000E+00  0.0000E+00  0.0000E+00  0.0000E+00  0.0000E+00  0.0000E+00  0.0000E+00  0.0000E+00  0.0000E+00  0.0000E+00  0.0000E+00  0.0000E+00  0.0000E+00  0.0000E+00  0.0000E+00
    -47.875  0.0000E+00  0.0000E+00  0.0000E+00  0.0000E+00  0.0000E+00  0.0000E+00  0.0000E+00  0.0000E+00  0.0000E+00  0.0000E+00  0.0000E+00  0.0000E+00  0.0000E+00  0.0000E+00  0.0000E+00  0.0000E+00  0.0000E+00  0.0000E+00
    -47.669  0.0000E+00  0.0000E+00  0.0000E+00  0.0000E+00  0.0000E+00  0.0000E+00  0.0000E+00  0.0000E+00  0.0000E+00  0.0000E+00  0.0000E+00  0.0000E+00  0.0000E+00  0.0000E+00  0.0000E+00  0.0000E+00  0.0000E+00  0.0000E+00
    -47.462  0.0000E+00  0.0000E+00  0.0000E+00  0.0000E+00  0.0000E+00  0.0000E+00  0.0000E+00  0.0000E+00  0.0000E+00  0.0000E+00  0.0000E+00  0.0000E+00  0.0000E+00  0.0000E+00  0.0000E+00  0.0000E+00  0.0000E+00  0.0000E+00
    -47.255  0.0000E+00  0.0000E+00  0.0000E+00  0.0000E+00  0.0000E+00  0.0000E+00  0.0000E+00  0.0000E+00  0.0000E+00  0.0000E+00  0.0000E+00  0.0000E+00  0.0000E+00  0.0000E+00  0.0000E+00  0.0000E+00  0.0000E+00  0.0000E+00
    -47.048  0.0000E+00  0.0000E+00  0.0000E+00  0.0000E+00  0.0000E+00  0.0000E+00  0.0000E+00  0.0000E+00  0.0000E+00  0.0000E+00  0.0000E+00  0.0000E+00  0.0000E+00  0.0000E+00  0.0000E+00  0.0000E+00  0.0000E+00  0.0000E+00
    -46.841  0.0000E+00  0.0000E+00  0.0000E+00  0.0000E+00  0.0000E+00  0.0000E+00  0.0000E+00  0.0000E+00  0.0000E+00  0.0000E+00  0.0000E+00  0.0000E+00  0.0000E+00  0.0000E+00  0.0000E+00  0.0000E+00  0.0000E+00  0.0000E+00
    -46.635  0.0000E+00  0.0000E+00  0.0000E+00  0.0000E+00  0.0000E+00  0.0000E+00  0.0000E+00  0.0000E+00  0.0000E+00  0.0000E+00  0.0000E+00  0.0000E+00  0.0000E+00  0.0000E+00  0.0000E+00  0.0000E+00  0.0000E+00  0.0000E+00
    -46.428  0.0000E+00  0.0000E+00  0.0000E+00  0.0000E+00  0.0000E+00  0.0000E+00  0.0000E+00  0.0000E+00  0.0000E+00  0.0000E+00  0.0000E+00  0.0000E+00  0.0000E+00  0.0000E+00  0.0000E+00  0.0000E+00  0.0000E+00  0.0000E+00
    -46.221  0.0000E+00  0.0000E+00  0.0000E+00  0.0000E+00  0.0000E+00  0.0000E+00  0.0000E+00  0.0000E+00  0.0000E+00  0.0000E+00  0.0000E+00  0.0000E+00  0.0000E+00  0.0000E+00  0.0000E+00  0.0000E+00  0.0000E+00  0.0000E+00
    -46.014  0.0000E+00  0.0000E+00  0.0000E+00  0.0000E+00  0.0000E+00  0.0000E+00  0.0000E+00  0.0000E+00  0.0000E+00  0.0000E+00  0.0000E+00  0.0000E+00  0.0000E+00  0.0000E+00  0.0000E+00  0.0000E+00  0.0000E+00  0.0000E+00
    -45.807  0.0000E+00  0.0000E+00  0.0000E+00  0.0000E+00  0.0000E+00  0.0000E+00  0.0000E+00  0.0000E+00  0.0000E+00  0.0000E+00  0.0000E+00  0.0000E+00  0.0000E+00  0.0000E+00  0.0000E+00  0.0000E+00  0.0000E+00  0.0000E+00
    -45.601  0.0000E+00  0.0000E+00  0.0000E+00  0.0000E+00  0.0000E+00  0.0000E+00  0.0000E+00  0.0000E+00  0.0000E+00  0.0000E+00  0.0000E+00  0.0000E+00  0.0000E+00  0.0000E+00  0.0000E+00  0.0000E+00  0.0000E+00  0.0000E+00
    -45.394  0.0000E+00  0.0000E+00  0.0000E+00  0.0000E+00  0.0000E+00  0.0000E+00  0.0000E+00  0.0000E+00  0.0000E+00  0.0000E+00  0.0000E+00  0.0000E+00  0.0000E+00  0.0000E+00  0.0000E+00  0.0000E+00  0.0000E+00  0.0000E+00
    -45.187  0.0000E+00  0.0000E+00  0.0000E+00  0.0000E+00  0.0000E+00  0.0000E+00  0.0000E+00  0.0000E+00  0.0000E+00  0.0000E+00  0.0000E+00  0.0000E+00  0.0000E+00  0.0000E+00  0.0000E+00  0.0000E+00  0.0000E+00  0.0000E+00
    -44.980  0.0000E+00  0.0000E+00  0.0000E+00  0.0000E+00  0.0000E+00  0.0000E+00  0.0000E+00  0.0000E+00  0.0000E+00  0.0000E+00  0.0000E+00  0.0000E+00  0.0000E+00  0.0000E+00  0.0000E+00  0.0000E+00  0.0000E+00  0.0000E+00
    -44.773  0.1860E-04  0.1584E-05  0.2141E-04  0.2115E-05  0.2994E-03  0.2841E-04  0.2013E+01  0.9597E-05  0.5847E-06  0.7211E-07  0.2868E-06  0.3590E-06  0.6155E-05  0.1433E-05  0.2216E-05  0.2083E-05  0.1919E-04  0.2337E-07
    -44.566  0.5198E-07  0.1278E-05  0.4785E+01  0.1834E-04  0.1090E-01  0.1046E-04  0.2763E-04  0.7657E-05  0.2791E-05  0.9599E-06  0.3879E-05  0.2613E-05  0.1592E-06  0.4407E-07  0.6122E-06  0.8974E-06  0.1352E-05  0.3714E-06
    -44.360  0.0000E+00  0.0000E+00  0.0000E+00  0.0000E+00  0.0000E+00  0.0000E+00  0.0000E+00  0.0000E+00  0.0000E+00  0.0000E+00  0.0000E+00  0.0000E+00  0.0000E+00  0.0000E+00  0.0000E+00  0.0000E+00  0.0000E+00  0.0000E+00
    -44.153  0.0000E+00  0.0000E+00  0.0000E+00  0.0000E+00  0.0000E+00  0.0000E+00  0.0000E+00  0.0000E+00  0.0000E+00  0.0000E+00  0.0000E+00  0.0000E+00  0.0000E+00  0.0000E+00  0.0000E+00  0.0000E+00  0.0000E+00  0.0000E+00
    -43.946  0.0000E+00  0.0000E+00  0.0000E+00  0.0000E+00  0.0000E+00  0.0000E+00  0.0000E+00  0.0000E+00  0.0000E+00  0.0000E+00  0.0000E+00  0.0000E+00  0.0000E+00  0.0000E+00  0.0000E+00  0.0000E+00  0.0000E+00  0.0000E+00
    -43.739  0.0000E+00  0.0000E+00  0.0000E+00  0.0000E+00  0.0000E+00  0.0000E+00  0.0000E+00  0.0000E+00  0.0000E+00  0.0000E+00  0.0000E+00  0.0000E+00  0.0000E+00  0.0000E+00  0.0000E+00  0.0000E+00  0.0000E+00  0.0000E+00
    -43.532  0.0000E+00  0.0000E+00  0.0000E+00  0.0000E+00  0.0000E+00  0.0000E+00  0.0000E+00  0.0000E+00  0.0000E+00  0.0000E+00  0.0000E+00  0.0000E+00  0.0000E+00  0.0000E+00  0.0000E+00  0.0000E+00  0.0000E+00  0.0000E+00
    -43.326  0.0000E+00  0.0000E+00  0.0000E+00  0.0000E+00  0.0000E+00  0.0000E+00  0.0000E+00  0.0000E+00  0.0000E+00  0.0000E+00  0.0000E+00  0.0000E+00  0.0000E+00  0.0000E+00  0.0000E+00  0.0000E+00  0.0000E+00  0.0000E+00
    -43.119  0.0000E+00  0.0000E+00  0.0000E+00  0.0000E+00  0.0000E+00  0.0000E+00  0.0000E+00  0.0000E+00  0.0000E+00  0.0000E+00  0.0000E+00  0.0000E+00  0.0000E+00  0.0000E+00  0.0000E+00  0.0000E+00  0.0000E+00  0.0000E+00
    -42.912  0.0000E+00  0.0000E+00  0.0000E+00  0.0000E+00  0.0000E+00  0.0000E+00  0.0000E+00  0.0000E+00  0.0000E+00  0.0000E+00  0.0000E+00  0.0000E+00  0.0000E+00  0.0000E+00  0.0000E+00  0.0000E+00  0.0000E+00  0.0000E+00
    -42.705  0.0000E+00  0.0000E+00  0.0000E+00  0.0000E+00  0.0000E+00  0.0000E+00  0.0000E+00  0.0000E+00  0.0000E+00  0.0000E+00  0.0000E+00  0.0000E+00  0.0000E+00  0.0000E+00  0.0000E+00  0.0000E+00  0.0000E+00  0.0000E+00
    -42.498  0.0000E+00  0.0000E+00  0.0000E+00  0.0000E+00  0.0000E+00  0.0000E+00  0.0000E+00  0.0000E+00  0.0000E+00  0.0000E+00  0.0000E+00  0.0000E+00  0.0000E+00  0.0000E+00  0.0000E+00  0.0000E+00  0.0000E+00  0.0000E+00
    -42.292  0.0000E+00  0.0000E+00  0.0000E+00  0.0000E+00  0.0000E+00  0.0000E+00  0.0000E+00  0.0000E+00  0.0000E+00  0.0000E+00  0.0000E+00  0.0000E+00  0.0000E+00  0.0000E+00  0.0000E+00  0.0000E+00  0.0000E+00  0.0000E+00
    -42.085  0.0000E+00  0.0000E+00  0.0000E+00  0.0000E+00  0.0000E+00  0.0000E+00  0.0000E+00  0.0000E+00  0.0000E+00  0.0000E+00  0.0000E+00  0.0000E+00  0.0000E+00  0.0000E+00  0.0000E+00  0.0000E+00  0.0000E+00  0.0000E+00
    -41.878  0.0000E+00  0.0000E+00  0.0000E+00  0.0000E+00  0.0000E+00  0.0000E+00  0.0000E+00  0.0000E+00  0.0000E+00  0.0000E+00  0.0000E+00  0.0000E+00  0.0000E+00  0.0000E+00  0.0000E+00  0.0000E+00  0.0000E+00  0.0000E+00
    -41.671  0.0000E+00  0.0000E+00  0.0000E+00  0.0000E+00  0.0000E+00  0.0000E+00  0.0000E+00  0.0000E+00  0.0000E+00  0.0000E+00  0.0000E+00  0.0000E+00  0.0000E+00  0.0000E+00  0.0000E+00  0.0000E+00  0.0000E+00  0.0000E+00
    -41.464  0.0000E+00  0.0000E+00  0.0000E+00  0.0000E+00  0.0000E+00  0.0000E+00  0.0000E+00  0.0000E+00  0.0000E+00  0.0000E+00  0.0000E+00  0.0000E+00  0.0000E+00  0.0000E+00  0.0000E+00  0.0000E+00  0.0000E+00  0.0000E+00
    -41.258  0.0000E+00  0.0000E+00  0.0000E+00  0.0000E+00  0.0000E+00  0.0000E+00  0.0000E+00  0.0000E+00  0.0000E+00  0.0000E+00  0.0000E+00  0.0000E+00  0.0000E+00  0.0000E+00  0.0000E+00  0.0000E+00  0.0000E+00  0.0000E+00