       N       E                     dE             d eps       ncg     rms          ort
SDA:   1    -0.130313287550E+03   -0.13031E+03    0.00000E+00  8520   0.114E+01 0.000E+00
CGA:   2    -0.130622955472E+03   -0.30967E+00   -0.30576E+00  8520   0.650E+00 0.448E-01
CGA:   3    -0.130775688643E+03   -0.15273E+00   -0.15257E+00  8520   0.184E+00 0.712E-02
CGA:   4    -0.130818147577E+03   -0.42459E-01   -0.42290E-01  8520   0.728E-01 0.618E-02
CGA:   5    -0.130843426397E+03   -0.25279E-01   -0.24970E-01  8520   0.372E-01 0.216E-02
CGA:   6    -0.130854215277E+03   -0.10789E-01   -0.10710E-01  8520   0.165E-01 0.102E-02
CGA:   7    -0.130858586272E+03   -0.43710E-02   -0.43324E-02  8520   0.567E-02 0.924E-03
CGA:   8    -0.130860248401E+03   -0.16621E-02   -0.16303E-02  8520   0.174E-02 0.576E-03
CGA:   9    -0.130860782599E+03   -0.53420E-03   -0.51965E-03  8520   0.661E-03 0.284E-03
CGA:  10    -0.130861086496E+03   -0.30390E-03   -0.28856E-03  8520   0.436E-03 0.101E-03
CGA:  11    -0.130861275343E+03   -0.18885E-03   -0.18342E-03  8520   0.249E-03 0.399E-04
CGA:  12    -0.130861376519E+03   -0.10118E-03   -0.10251E-03  8520   0.125E-03-0.941E-05
CGA:  13    -0.130861396401E+03   -0.19882E-04   -0.22147E-04  8520   0.380E-04 0.380E-04
CGA:  14    -0.130861401662E+03   -0.52612E-05   -0.74458E-05  8520   0.171E-04 0.240E-04
CGA:  15    -0.130861405285E+03   -0.36229E-05   -0.37521E-05  8520   0.853E-05 0.760E-05
CGA:  16    -0.130861405808E+03   -0.52315E-06   -0.15037E-05  8520   0.493E-05 0.863E-05
   1 F= -.13086141E+03 E0= -.13086141E+03  d E =-.130861E+03  mag=     0.0000
       N       E                     dE             d eps       ncg     rms          ort
SDA:   1    -0.126320119515E+03    0.45413E+01    0.00000E+00  8520   0.263E+02 0.000E+00
CGA:   2    -0.129726201310E+03   -0.34061E+01   -0.33971E+01  8520   0.358E+01 0.387E-01
CGA:   3    -0.130434845361E+03   -0.70864E+00   -0.70883E+00  8520   0.109E+01 0.149E-02
CGA:   4    -0.130695242389E+03   -0.26040E+00   -0.26041E+00  8520   0.347E+00-0.861E-03
CGA:   5    -0.130765615104E+03   -0.70373E-01   -0.70383E-01  8520   0.126E+00 0.586E-03
CGA:   6    -0.130797384214E+03   -0.31769E-01   -0.31745E-01  8520   0.378E-01 0.661E-03
CGA:   7    -0.130810046533E+03   -0.12662E-01   -0.12624E-01  8520   0.191E-01 0.330E-03
CGA:   8    -0.130815318625E+03   -0.52721E-02   -0.52731E-02  8520   0.591E-02-0.282E-04
CGA:   9    -0.130817080432E+03   -0.17618E-02   -0.17669E-02  8520   0.184E-02-0.742E-04
CGA:  10    -0.130817646116E+03   -0.56568E-03   -0.57129E-03  8520   0.676E-03-0.681E-04
CGA:  11    -0.130817899491E+03   -0.25338E-03   -0.27279E-03  8520   0.459E-03-0.106E-03
CGA:  12    -0.130818044692E+03   -0.14520E-03   -0.15401E-03  8520   0.307E-03-0.577E-04
CGA:  13    -0.130818134196E+03   -0.89503E-04   -0.95682E-04  8520   0.151E-03-0.595E-04
CGA:  14    -0.130818169992E+03   -0.35797E-04   -0.36714E-04  8520   0.480E-04-0.212E-04
CGA:  15    -0.130818181302E+03   -0.11310E-04   -0.23734E-04  8520   0.614E-04-0.395E-04
CGA:  16    -0.130818192021E+03   -0.10719E-04   -0.11445E-04  8520   0.125E-04 0.810E-05
CGA:  17    -0.130818195151E+03   -0.31304E-05   -0.32547E-05  8520   0.376E-05 0.304E-05
CGA:  18    -0.130818195838E+03   -0.68693E-06   -0.90290E-06  8520   0.236E-05 0.283E-05
   2 F= -.13081820E+03 E0= -.13081820E+03  d E =0.432100E-01  mag=    -0.0000
       N       E                     dE             d eps       ncg     rms          ort
SDA:   1    -0.129318567640E+03    0.14996E+01    0.00000E+00  8520   0.978E+01 0.000E+00
CGA:   2    -0.130523690949E+03   -0.12051E+01   -0.12089E+01  8520   0.127E+01-0.206E-01
CGA:   3    -0.130772918578E+03   -0.24923E+00   -0.24918E+00  8520   0.372E+00 0.714E-03
CGA:   4    -0.130861483499E+03   -0.88565E-01   -0.88578E-01  8520   0.127E+00 0.110E-02
CGA:   5    -0.130886532013E+03   -0.25049E-01   -0.25059E-01  8520   0.437E-01 0.126E-03
CGA:   6    -0.130897937607E+03   -0.11406E-01   -0.11407E-01  8520   0.136E-01-0.105E-03
CGA:   7    -0.130902369477E+03   -0.44319E-02   -0.44490E-02  8520   0.732E-02-0.218E-03
CGA:   8    -0.130904303764E+03   -0.19343E-02   -0.19341E-02  8520   0.213E-02 0.119E-04
CGA:   9    -0.130904918605E+03   -0.61484E-03   -0.61226E-03  8520   0.667E-03 0.752E-04
CGA:  10    -0.130905110300E+03   -0.19170E-03   -0.19038E-03  8520   0.229E-03 0.602E-04
CGA:  11    -0.130905179135E+03   -0.68835E-04   -0.67721E-04  8520   0.104E-03 0.687E-04
CGA:  12    -0.130905221115E+03   -0.41979E-04   -0.40198E-04  8520   0.580E-04 0.443E-04
CGA:  13    -0.130905248445E+03   -0.27330E-04   -0.25738E-04  8520   0.289E-04 0.297E-04
CGA:  14    -0.130905256518E+03   -0.80732E-05   -0.79436E-05  8520   0.110E-04 0.937E-05
CGA:  15    -0.130905259302E+03   -0.27841E-05   -0.31822E-05  8520   0.701E-05 0.921E-05
CGA:  16    -0.130905259772E+03   -0.47020E-06   -0.10714E-05  8520   0.520E-05 0.565E-05
   3 F= -.13090526E+03 E0= -.13090526E+03  d E =-.438540E-01  mag=    -0.0000
       N       E                     dE             d eps       ncg     rms          ort
SDA:   1    -0.130905055828E+03    0.20347E-03    0.00000E+00  8520   0.134E-02 0.000E+00
CGA:   2    -0.130905204820E+03   -0.14899E-03   -0.15851E-03  8520   0.167E-03 0.730E-04
CGA:   3    -0.130905243004E+03   -0.38185E-04   -0.38004E-04  8520   0.612E-04-0.676E-05
CGA:   4    -0.130905259517E+03   -0.16513E-04   -0.17177E-04  8520   0.329E-04-0.129E-04
CGA:   5    -0.130905263123E+03   -0.36065E-05   -0.39284E-05  8520   0.108E-04 0.348E-05
CGA:   6    -0.130905263859E+03   -0.73600E-06   -0.14221E-05  8520   0.502E-05 0.573E-05
   4 F= -.13090526E+03 E0= -.13090526E+03  d E =-.438581E-01  mag=    -0.0000
       N       E                     dE             d eps       ncg     rms          ort
SDA:   1    -0.130620165149E+03    0.28510E+00    0.00000E+00  8520   0.101E+01 0.000E+00
CGA:   2    -0.130796726011E+03   -0.17656E+00   -0.17653E+00  8520   0.336E+00 0.644E-03
CGA:   3    -0.130875288898E+03   -0.78563E-01   -0.78566E-01  8520   0.120E+00-0.396E-03
CGA:   4    -0.130898552258E+03   -0.23263E-01   -0.23260E-01  8520   0.315E-01-0.122E-03
CGA:   5    -0.130905344911E+03   -0.67927E-02   -0.67921E-02  8520   0.107E-01-0.966E-04
CGA:   6    -0.130908248635E+03   -0.29037E-02   -0.29059E-02  8520   0.483E-02-0.520E-04
CGA:   7    -0.130909561501E+03   -0.13129E-02   -0.13100E-02  8520   0.170E-02 0.592E-04
CGA:   8    -0.130910061596E+03   -0.50009E-03   -0.50658E-03  8520   0.501E-03-0.971E-04
CGA:   9    -0.130910192930E+03   -0.13133E-03   -0.13341E-03  8520   0.130E-03-0.404E-04
CGA:  10    -0.130910224630E+03   -0.31700E-04   -0.31918E-04  8520   0.312E-04-0.653E-05
CGA:  11    -0.130910234707E+03   -0.10078E-04   -0.11676E-04  8520   0.174E-04-0.100E-04
CGA:  12    -0.130910236937E+03   -0.22299E-05   -0.23320E-05  8520   0.707E-05 0.224E-05
CGA:  13    -0.130910238395E+03   -0.14582E-05   -0.15547E-05  8520   0.291E-05 0.209E-05
CGA:  14    -0.130910239169E+03   -0.77388E-06   -0.79490E-06  8520   0.112E-05 0.762E-06
   5 F= -.13091024E+03 E0= -.13091024E+03  d E =-.497531E-02  mag=    -0.0000
       N       E                     dE             d eps       ncg     rms          ort
SDA:   1    -0.130872864450E+03    0.37374E-01    0.00000E+00  8520   0.131E+00 0.000E+00
CGA:   2    -0.130895713443E+03   -0.22849E-01   -0.22858E-01  8520   0.435E-01 0.203E-03
CGA:   3    -0.130905934756E+03   -0.10221E-01   -0.10222E-01  8520   0.156E-01-0.194E-03
CGA:   4    -0.130908963465E+03   -0.30287E-02   -0.30267E-02  8520   0.409E-02-0.574E-04
CGA:   5    -0.130909847981E+03   -0.88452E-03   -0.88397E-03  8520   0.139E-02-0.460E-04
CGA:   6    -0.130910225505E+03   -0.37752E-03   -0.37864E-03  8520   0.636E-03-0.252E-04
CGA:   7    -0.130910391592E+03   -0.16609E-03   -0.16545E-03  8520   0.213E-03 0.185E-04
CGA:   8    -0.130910460653E+03   -0.69060E-04   -0.72865E-04  8520   0.826E-04-0.383E-04
CGA:   9    -0.130910479661E+03   -0.19008E-04   -0.19814E-04  8520   0.242E-04-0.147E-04
CGA:  10    -0.130910484935E+03   -0.52740E-05   -0.53371E-05  8520   0.633E-05-0.227E-05
CGA:  11    -0.130910486948E+03   -0.20125E-05   -0.26298E-05  8520   0.506E-05-0.285E-05
CGA:  12    -0.130910487241E+03   -0.29270E-06   -0.40757E-06  8520   0.282E-05 0.108E-05
   6 F= -.13091049E+03 E0= -.13091049E+03  d E =-.522338E-02  mag=    -0.0000
       N       E                     dE             d eps       ncg     rms          ort
SDA:   1    -0.130547519983E+03    0.36297E+00    0.00000E+00  8520   0.121E+01 0.000E+00
CGA:   2    -0.130744813369E+03   -0.19729E+00   -0.19748E+00  8520   0.411E+00 0.322E-02
CGA:   3    -0.130857245081E+03   -0.11243E+00   -0.11245E+00  8520   0.181E+00-0.533E-03
CGA:   4    -0.130892166087E+03   -0.34921E-01   -0.34913E-01  8520   0.507E-01-0.139E-03
CGA:   5    -0.130904027321E+03   -0.11861E-01   -0.11862E-01  8520   0.195E-01 0.331E-03
CGA:   6    -0.130909399508E+03   -0.53722E-02   -0.53568E-02  8520   0.836E-02 0.412E-03
CGA:   7    -0.130911553819E+03   -0.21543E-02   -0.21500E-02  8520   0.250E-02 0.318E-03
CGA:   8    -0.130912221813E+03   -0.66799E-03   -0.66758E-03  8520   0.585E-03 0.212E-04
CGA:   9    -0.130912375452E+03   -0.15364E-03   -0.15324E-03  8520   0.136E-03 0.202E-04
CGA:  10    -0.130912410731E+03   -0.35278E-04   -0.35145E-04  8520   0.323E-04 0.143E-04
CGA:  11    -0.130912420075E+03   -0.93441E-05   -0.92257E-05  8520   0.956E-05 0.698E-05
CGA:  12    -0.130912422307E+03   -0.22318E-05   -0.23920E-05  8520   0.368E-05 0.438E-05
CGA:  13    -0.130912423198E+03   -0.89117E-06   -0.10187E-05  8520   0.190E-05 0.251E-05
   7 F= -.13091242E+03 E0= -.13091242E+03  d E =-.193596E-02  mag=    -0.0000
       N       E                     dE             d eps       ncg     rms          ort
SDA:   1    -0.130899558744E+03    0.12864E-01    0.00000E+00  8520   0.430E-01 0.000E+00
CGA:   2    -0.130906621613E+03   -0.70629E-02   -0.70346E-02  8520   0.148E-01-0.415E-03
CGA:   3    -0.130910552504E+03   -0.39309E-02   -0.39259E-02  8520   0.628E-02 0.147E-03
CGA:   4    -0.130911784113E+03   -0.12316E-02   -0.12328E-02  8520   0.177E-02 0.278E-04
CGA:   5    -0.130912215582E+03   -0.43147E-03   -0.43199E-03  8520   0.732E-03-0.504E-04
CGA:   6    -0.130912422120E+03   -0.20654E-03   -0.21123E-03  8520   0.367E-03-0.742E-04
CGA:   7    -0.130912513617E+03   -0.91497E-04   -0.95129E-04  8520   0.140E-03-0.701E-04
CGA:   8    -0.130912537812E+03   -0.24195E-04   -0.24263E-04  8520   0.282E-04 0.274E-05
CGA:   9    -0.130912544390E+03   -0.65777E-05   -0.66069E-05  8520   0.838E-05 0.362E-05
CGA:  10    -0.130912547002E+03   -0.26122E-05   -0.26108E-05  8520   0.366E-05 0.386E-07
CGA:  11    -0.130912547694E+03   -0.69232E-06   -0.73719E-06  8520   0.138E-05 0.115E-05
   8 F= -.13091255E+03 E0= -.13091255E+03  d E =-.206045E-02  mag=    -0.0000
       N       E                     dE             d eps       ncg     rms          ort
SDA:   1    -0.130866231002E+03    0.46316E-01    0.00000E+00  8520   0.143E+00 0.000E+00
CGA:   2    -0.130893781374E+03   -0.27550E-01   -0.27585E-01  8520   0.618E-01 0.776E-03
CGA:   3    -0.130908303870E+03   -0.14522E-01   -0.14522E-01  8520   0.193E-01-0.344E-03
CGA:   4    -0.130911855376E+03   -0.35515E-02   -0.35507E-02  8520   0.504E-02-0.159E-04
CGA:   5    -0.130913025867E+03   -0.11705E-02   -0.11705E-02  8520   0.191E-02 0.926E-04
CGA:   6    -0.130913544842E+03   -0.51898E-03   -0.51621E-03  8520   0.808E-03 0.844E-04
CGA:   7    -0.130913764973E+03   -0.22013E-03   -0.21827E-03  8520   0.260E-03 0.757E-04
CGA:   8    -0.130913843154E+03   -0.78181E-04   -0.78074E-04  8520   0.748E-04 0.260E-05
CGA:   9    -0.130913862128E+03   -0.18974E-04   -0.18881E-04  8520   0.168E-04 0.757E-05
CGA:  10    -0.130913865851E+03   -0.37232E-05   -0.38733E-05  8520   0.416E-05 0.521E-05
CGA:  11    -0.130913866756E+03   -0.90460E-06   -0.10133E-05  8520   0.152E-05 0.214E-05
   9 F= -.13091387E+03 E0= -.13091387E+03  d E =-.131906E-02  mag=    -0.0000
