unknown system                          
           1
     2.869097   -0.000019    0.000001
    -0.000035    4.604828   -0.000199
     0.000014   -0.000426    9.278097
   Mn   O 
   4   8
Direct configuration=     1
   0.24999847  0.03174946  0.86401357
   0.75000233  0.96825231  0.13598395
   0.74999984  0.53181077  0.63599680
   0.24999904  0.46819357  0.36400388
   0.25000705  0.70976872  0.53362211
   0.75000535  0.20979862  0.96635494
   0.24999754  0.79020100  0.03364980
   0.74999071  0.29023415  0.46637136
   0.25000476  0.17634097  0.22196871
   0.24999595  0.32364569  0.72197149
   0.75000247  0.67635634  0.27802710
   0.74999649  0.82364938  0.77803731
unknown system                          
           1
     2.823455   -0.000014   -0.000001
    -0.000026    4.538981    0.000231
     0.000007    0.000441    9.120191
   Mn   O 
   4   8
Direct configuration=     2
   0.25000001  0.03046931  0.86475599
   0.75000213  0.96953050  0.13524963
   0.74999988  0.53043716  0.63524095
   0.24999951  0.46956454  0.36475301
   0.25000395  0.70794784  0.53402036
   0.75000369  0.20793833  0.96598132
   0.24999673  0.79206253  0.03401714
   0.74999328  0.29205571  0.46598043
   0.25000383  0.17468683  0.22153145
   0.24999712  0.32531448  0.72153574
   0.75000239  0.67468627  0.27846300
   0.74999748  0.82530751  0.77847199
unknown system                          
           1
     2.849944   -0.000017    0.000000
    -0.000031    4.577197   -0.000019
     0.000011   -0.000062    9.211835
   Mn   O 
   4   8
Direct configuration=     3
   0.24999910  0.03122313  0.86431762
   0.75000225  0.96877783  0.13568322
   0.74999986  0.53124584  0.63568717
   0.24999923  0.46875741  0.36431075
   0.25000577  0.70902000  0.53378517
   0.75000466  0.20903361  0.96620186
   0.24999721  0.79096652  0.03380031
   0.74999176  0.29098316  0.46621129
   0.25000438  0.17566072  0.22178957
   0.24999644  0.32433187  0.72179306
   0.75000244  0.67566963  0.27820559
   0.74999690  0.82433128  0.77821539
unknown system                          
           1
     2.849629   -0.000017    0.000000
    -0.000031    4.576742   -0.000016
     0.000011   -0.000056    9.210744
   Mn   O 
   4   8
Direct configuration=     4
   0.24999911  0.03121424  0.86432278
   0.75000225  0.96878671  0.13567811
   0.74999986  0.53123630  0.63568192
   0.24999924  0.46876694  0.36431596
   0.25000575  0.70900735  0.53378794
   0.75000465  0.20902068  0.96619926
   0.24999721  0.79097946  0.03380286
   0.74999178  0.29099581  0.46620857
   0.25000437  0.17564923  0.22178653
   0.24999644  0.32434346  0.72179003
   0.75000243  0.67565803  0.27820862
   0.74999691  0.82434279  0.77821842
unknown system                          
           1
     2.851838   -0.000013   -0.000001
    -0.000025    4.566315    0.000112
     0.000007    0.000200    9.193934
   Mn   O 
   4   8
Direct configuration=     5
   0.25000093  0.03063218  0.86407514
   0.75000295  0.96936758  0.13592592
   0.75000090  0.53063398  0.63592788
   0.25000029  0.46936747  0.36407062
   0.25000273  0.71052941  0.53376694
   0.75000272  0.21052804  0.96623166
   0.24999634  0.78947299  0.03376890
   0.74999349  0.28947405  0.46623200
   0.25000332  0.17554057  0.22186806
   0.24999701  0.32446318  0.72186877
   0.75000197  0.67553693  0.27812984
   0.74999734  0.82445462  0.77813525
unknown system                          
           1
     2.852633   -0.000011   -0.000001
    -0.000022    4.562562    0.000157
     0.000006    0.000292    9.187883
   Mn   O 
   4   8
Direct configuration=     6
   0.25000159  0.03042219  0.86398585
   0.75000320  0.96957714  0.13601527
   0.75000128  0.53041668  0.63601658
   0.25000067  0.46958413  0.36398215
   0.25000164  0.71107853  0.53375936
   0.75000203  0.21107186  0.96624333
   0.24999603  0.78892949  0.03375667
   0.74999411  0.28892504  0.46624046
   0.25000295  0.17550136  0.22189746
   0.24999722  0.32450637  0.72189717
   0.75000181  0.67549324  0.27810144
   0.74999749  0.82449497  0.77810526
unknown system                          
           1
     2.855725   -0.000005   -0.000002
    -0.000012    4.551383    0.000036
     0.000003    0.000047    9.178629
   Mn   O 
   4   8
Direct configuration=     7
   0.25000249  0.03028375  0.86457275
   0.75000281  0.96971606  0.13542699
   0.75000140  0.53028754  0.63542390
   0.25000159  0.46971262  0.36457708
   0.24999895  0.71252681  0.53387849
   0.75000031  0.21251770  0.96612087
   0.24999627  0.78748379  0.03387907
   0.74999658  0.28747595  0.46612222
   0.25000173  0.17566410  0.22204810
   0.24999830  0.32434064  0.72204859
   0.75000108  0.67565697  0.27795036
   0.74999849  0.82433507  0.77795256
unknown system                          
           1
     2.855146   -0.000006   -0.000002
    -0.000014    4.553476    0.000058
     0.000003    0.000093    9.180362
   Mn   O 
   4   8
Direct configuration=     8
   0.25000232  0.03030973  0.86446273
   0.75000288  0.96968998  0.13553727
   0.75000137  0.53031179  0.63553501
   0.25000142  0.46968849  0.36446555
   0.24999945  0.71225492  0.53385615
   0.75000063  0.21224627  0.96614382
   0.24999622  0.78775520  0.03385613
   0.74999612  0.28774800  0.46614439
   0.25000196  0.17563355  0.22201986
   0.24999810  0.32437175  0.72202020
   0.75000122  0.67562623  0.27797868
   0.74999831  0.82436509  0.77798119
unknown system                          
           1
     2.854347   -0.000002   -0.000002
    -0.000008    4.544929   -0.000018
     0.000003   -0.000061    9.194140
   Mn   O 
   4   8
Direct configuration=     9
   0.25000138  0.03048329  0.86460731
   0.75000181  0.96951742  0.13539271
   0.75000058  0.53049089  0.63539220
   0.25000127  0.46951019  0.36460838
   0.24999900  0.71262490  0.53392601
   0.75000019  0.21261304  0.96607129
   0.24999749  0.78738770  0.03392861
   0.74999758  0.28737644  0.46607476
   0.25000141  0.17561156  0.22189687
   0.24999910  0.32439125  0.72189599
   0.75000086  0.67560644  0.27810335
   0.74999934  0.82438787  0.77810351
