  12  12   1   0
  0.9897766E+01  0.2688697E-09  0.4820719E-09  0.9163571E-09  0.5000000E-15
  1.000000000000000E-004
  CAR 
 unknown system                          
     11.09364836    -49.01277761  301      4.65095361      1.00000000
    -49.013  0.0000E+00  0.0000E+00
    -48.812  0.0000E+00  0.0000E+00
    -48.612  0.0000E+00  0.0000E+00
    -48.412  0.0000E+00  0.0000E+00
    -48.211  0.0000E+00  0.0000E+00
    -48.011  0.0000E+00  0.0000E+00
    -47.811  0.0000E+00  0.0000E+00
    -47.610  0.0000E+00  0.0000E+00
    -47.410  0.0000E+00  0.0000E+00
    -47.210  0.0000E+00  0.0000E+00
    -47.009  0.0000E+00  0.0000E+00
    -46.809  0.0000E+00  0.0000E+00
    -46.609  0.0000E+00  0.0000E+00
    -46.408  0.0000E+00  0.0000E+00
    -46.208  0.7443E-01  0.1491E-01
    -46.007  0.2392E+00  0.1203E+00
    -45.807  0.0000E+00  0.1206E+00
    -45.607  0.0000E+00  0.1206E+00
    -45.406  0.0000E+00  0.1206E+00
    -45.206  0.0000E+00  0.1206E+00
    -45.006  0.0000E+00  0.1206E+00
    -44.805  0.0000E+00  0.1206E+00
    -44.605  0.0000E+00  0.1206E+00
    -44.405  0.0000E+00  0.1206E+00
    -44.204  0.0000E+00  0.1206E+00
    -44.004  0.0000E+00  0.1206E+00
    -43.804  0.0000E+00  0.1206E+00
    -43.603  0.0000E+00  0.1206E+00
    -43.403  0.0000E+00  0.1206E+00
    -43.202  0.0000E+00  0.1206E+00
    -43.002  0.0000E+00  0.1206E+00
    -42.802  0.0000E+00  0.1206E+00
    -42.601  0.0000E+00  0.1206E+00
    -42.401  0.0000E+00  0.1206E+00
    -42.201  0.0000E+00  0.1206E+00
    -42.000  0.0000E+00  0.1206E+00
    -41.800  0.0000E+00  0.1206E+00
    -41.600  0.0000E+00  0.1206E+00
    -41.399  0.0000E+00  0.1206E+00
    -41.199  0.0000E+00  0.1206E+00
    -40.999  0.0000E+00  0.1206E+00
    -40.798  0.0000E+00  0.1206E+00
    -40.598  0.0000E+00  0.1206E+00
    -40.398  0.0000E+00  0.1206E+00
    -40.197  0.0000E+00  0.1206E+00
    -39.997  0.0000E+00  0.1206E+00
    -39.796  0.0000E+00  0.1206E+00
    -39.596  0.0000E+00  0.1206E+00
    -39.396  0.0000E+00  0.1206E+00
    -39.195  0.0000E+00  0.1206E+00
    -38.995  0.0000E+00  0.1206E+00
    -38.795  0.0000E+00  0.1206E+00
    -38.594  0.0000E+00  0.1206E+00
    -38.394  0.0000E+00  0.1206E+00
    -38.194  0.0000E+00  0.1206E+00
    -37.993  0.0000E+00  0.1206E+00
    -37.793  0.0000E+00  0.1206E+00
    -37.593  0.0000E+00  0.1206E+00
    -37.392  0.0000E+00  0.1206E+00
    -37.192  0.0000E+00  0.1206E+00
    -36.991  0.0000E+00  0.1206E+00
    -36.791  0.0000E+00  0.1206E+00
    -36.591  0.0000E+00  0.1206E+00
    -36.390  0.0000E+00  0.1206E+00
    -36.190  0.0000E+00  0.1206E+00
    -35.990  0.0000E+00  0.1206E+00
    -35.789  0.0000E+00  0.1206E+00
    -35.589  0.0000E+00  0.1206E+00
    -35.389  0.0000E+00  0.1206E+00
    -35.188  0.0000E+00  0.1206E+00
    -34.988  0.0000E+00  0.1206E+00
    -34.788  0.0000E+00  0.1206E+00
    -34.587  0.0000E+00  0.1206E+00
    -34.387  0.0000E+00  0.1206E+00
    -34.187  0.0000E+00  0.1206E+00
    -33.986  0.0000E+00  0.1206E+00
    -33.786  0.0000E+00  0.1206E+00
    -33.585  0.0000E+00  0.1206E+00
    -33.385  0.0000E+00  0.1206E+00
    -33.185  0.0000E+00  0.1206E+00
    -32.984  0.0000E+00  0.1206E+00
    -32.784  0.0000E+00  0.1206E+00
    -32.584  0.0000E+00  0.1206E+00
    -32.383  0.0000E+00  0.1206E+00
    -32.183  0.0000E+00  0.1206E+00
    -31.983  0.0000E+00  0.1206E+00
    -31.782  0.0000E+00  0.1206E+00
    -31.582  0.0000E+00  0.1206E+00
    -31.382  0.0000E+00  0.1206E+00
    -31.181  0.0000E+00  0.1206E+00
    -30.981  0.0000E+00  0.1206E+00
    -30.780  0.0000E+00  0.1206E+00
    -30.580  0.0000E+00  0.1206E+00
    -30.380  0.0000E+00  0.1206E+00
    -30.179  0.0000E+00  0.1206E+00
    -29.979  0.0000E+00  0.1206E+00
    -29.779  0.0000E+00  0.1206E+00
    -29.578  0.0000E+00  0.1206E+00
    -29.378  0.0000E+00  0.1206E+00
    -29.178  0.0000E+00  0.1206E+00
    -28.977  0.0000E+00  0.1206E+00
    -28.777  0.0000E+00  0.1206E+00
    -28.577  0.0000E+00  0.1206E+00
    -28.376  0.0000E+00  0.1206E+00
    -28.176  0.0000E+00  0.1206E+00
    -27.976  0.0000E+00  0.1206E+00
    -27.775  0.0000E+00  0.1206E+00
    -27.575  0.0000E+00  0.1206E+00
    -27.374  0.0000E+00  0.1206E+00
    -27.174  0.0000E+00  0.1206E+00
    -26.974  0.0000E+00  0.1206E+00
    -26.773  0.0000E+00  0.1206E+00
    -26.573  0.0000E+00  0.1206E+00
    -26.373  0.0000E+00  0.1206E+00
    -26.172  0.0000E+00  0.1206E+00
    -25.972  0.0000E+00  0.1206E+00
    -25.772  0.0000E+00  0.1206E+00
    -25.571  0.0000E+00  0.1206E+00
    -25.371  0.0000E+00  0.1206E+00
    -25.171  0.0000E+00  0.1206E+00
    -24.970  0.0000E+00  0.1206E+00
    -24.770  0.0000E+00  0.1206E+00
    -24.569  0.0000E+00  0.1206E+00
    -24.369  0.0000E+00  0.1206E+00
    -24.169  0.0000E+00  0.1206E+00
    -23.968  0.0000E+00  0.1206E+00
    -23.768  0.0000E+00  0.1206E+00
    -23.568  0.0000E+00  0.1206E+00
    -23.367  0.0000E+00  0.1206E+00
    -23.167  0.0000E+00  0.1206E+00
    -22.967  0.0000E+00  0.1206E+00
    -22.766  0.0000E+00  0.1206E+00
    -22.566  0.0000E+00  0.1206E+00
    -22.366  0.0000E+00  0.1206E+00
    -22.165  0.0000E+00  0.1206E+00
    -21.965  0.0000E+00  0.1206E+00
    -21.765  0.0000E+00  0.1206E+00
    -21.564  0.0000E+00  0.1206E+00
    -21.364  0.0000E+00  0.1206E+00
    -21.163  0.0000E+00  0.1206E+00
    -20.963  0.0000E+00  0.1206E+00
    -20.763  0.0000E+00  0.1206E+00
    -20.562  0.0000E+00  0.1206E+00
    -20.362  0.0000E+00  0.1206E+00
    -20.162  0.0000E+00  0.1206E+00
    -19.961  0.0000E+00  0.1206E+00
    -19.761  0.0000E+00  0.1206E+00
    -19.561  0.0000E+00  0.1206E+00
    -19.360  0.0000E+00  0.1206E+00
    -19.160  0.0000E+00  0.1206E+00
    -18.960  0.0000E+00  0.1206E+00
    -18.759  0.0000E+00  0.1206E+00
    -18.559  0.0000E+00  0.1206E+00
    -18.359  0.0000E+00  0.1206E+00
    -18.158  0.0000E+00  0.1206E+00
    -17.958  0.0000E+00  0.1206E+00
    -17.757  0.0000E+00  0.1206E+00
    -17.557  0.0000E+00  0.1206E+00
    -17.357  0.0000E+00  0.1206E+00
    -17.156  0.0000E+00  0.1206E+00
    -16.956  0.1889E-03  0.1206E+00
    -16.756  0.3217E-02  0.1217E+00
    -16.555  0.5401E-02  0.1235E+00
    -16.355  0.1067E-01  0.1268E+00
    -16.155  0.9203E-02  0.1295E+00
    -15.954  0.4310E-02  0.1321E+00
    -15.754  0.1235E-01  0.1375E+00
    -15.554  0.1856E-01  0.1451E+00
    -15.353  0.3025E-01  0.1580E+00
    -15.153  0.1352E-01  0.1656E+00
    -14.952  0.2058E-01  0.1765E+00
    -14.752  0.1824E-01  0.1809E+00
    -14.552  0.1808E-01  0.1846E+00
    -14.351  0.3990E-02  0.2010E+00
    -14.151  0.0000E+00  0.2010E+00
    -13.951  0.0000E+00  0.2010E+00
    -13.750  0.0000E+00  0.2010E+00
    -13.550  0.0000E+00  0.2010E+00
    -13.350  0.0000E+00  0.2010E+00
    -13.149  0.0000E+00  0.2010E+00
    -12.949  0.0000E+00  0.2010E+00
    -12.749  0.0000E+00  0.2010E+00
    -12.548  0.0000E+00  0.2010E+00
    -12.348  0.0000E+00  0.2010E+00
    -12.148  0.0000E+00  0.2010E+00
    -11.947  0.0000E+00  0.2010E+00
    -11.747  0.0000E+00  0.2010E+00
    -11.546  0.0000E+00  0.2010E+00
    -11.346  0.0000E+00  0.2010E+00
    -11.146  0.0000E+00  0.2010E+00
    -10.945  0.0000E+00  0.2010E+00
    -10.745  0.0000E+00  0.2010E+00
    -10.545  0.0000E+00  0.2010E+00
    -10.344  0.0000E+00  0.2010E+00
    -10.144  0.0000E+00  0.2010E+00
     -9.944  0.0000E+00  0.2010E+00
     -9.743  0.0000E+00  0.2010E+00
     -9.543  0.0000E+00  0.2010E+00
     -9.343  0.0000E+00  0.2010E+00
     -9.142  0.0000E+00  0.2010E+00
     -8.942  0.0000E+00  0.2010E+00
     -8.741  0.0000E+00  0.2010E+00
     -8.541  0.0000E+00  0.2010E+00
     -8.341  0.0000E+00  0.2010E+00
     -8.140  0.0000E+00  0.2010E+00
     -7.940  0.0000E+00  0.2010E+00
     -7.740  0.0000E+00  0.2010E+00
     -7.539  0.0000E+00  0.2010E+00
     -7.339  0.0000E+00  0.2010E+00
     -7.139  0.0000E+00  0.2010E+00
     -6.938  0.0000E+00  0.2010E+00
     -6.738  0.0000E+00  0.2010E+00
     -6.538  0.0000E+00  0.2010E+00
     -6.337  0.0000E+00  0.2010E+00
     -6.137  0.0000E+00  0.2010E+00
     -5.937  0.0000E+00  0.2010E+00
     -5.736  0.0000E+00  0.2010E+00
     -5.536  0.0000E+00  0.2010E+00
     -5.335  0.0000E+00  0.2010E+00
     -5.135  0.0000E+00  0.2010E+00
     -4.935  0.0000E+00  0.2010E+00
     -4.734  0.0000E+00  0.2010E+00
     -4.534  0.0000E+00  0.2010E+00
     -4.334  0.0000E+00  0.2010E+00
     -4.133  0.0000E+00  0.2010E+00
     -3.933  0.0000E+00  0.2010E+00
     -3.733  0.0000E+00  0.2010E+00
     -3.532  0.3873E-08  0.2010E+00
     -3.332  0.1149E-02  0.2013E+00
     -3.132  0.1520E-02  0.2024E+00
     -2.931  0.7593E-02  0.2050E+00
     -2.731  0.9389E-02  0.2097E+00
     -2.530  0.2463E-01  0.2207E+00
     -2.330  0.1959E-01  0.2316E+00
     -2.130  0.1401E-01  0.2418E+00
     -1.929  0.2874E-01  0.2552E+00
     -1.729  0.1339E-01  0.2686E+00
     -1.529  0.1457E-01  0.2753E+00
     -1.328  0.1615E-01  0.2835E+00
     -1.128  0.1221E-01  0.2887E+00
     -0.928  0.1000E-01  0.2938E+00
     -0.727  0.1794E-01  0.3024E+00
     -0.527  0.1658E-01  0.3121E+00
     -0.327  0.1182E-01  0.3188E+00
     -0.126  0.7455E-02  0.3251E+00
      0.074  0.1375E-01  0.3332E+00
      0.274  0.1459E-01  0.3419E+00
      0.475  0.2487E-01  0.3527E+00
      0.675  0.2829E-01  0.3645E+00
      0.876  0.1864E-01  0.3756E+00
      1.076  0.2562E-01  0.3883E+00
      1.276  0.7593E-02  0.3945E+00
      1.477  0.1047E-01  0.4007E+00
      1.677  0.1753E-01  0.4093E+00
      1.877  0.1196E-01  0.4150E+00
      2.078  0.1426E-01  0.4212E+00
      2.278  0.7860E-02  0.4261E+00
      2.478  0.1078E-01  0.4346E+00
      2.679  0.1213E-01  0.4395E+00
      2.879  0.3452E-02  0.4415E+00
      3.079  0.7600E-03  0.4421E+00
      3.280  0.0000E+00  0.4422E+00
      3.480  0.6892E-05  0.4422E+00
      3.681  0.6191E-02  0.4439E+00
      3.881  0.2817E-01  0.4559E+00
      4.081  0.2496E-01  0.4715E+00
      4.282  0.2921E-01  0.4849E+00
      4.482  0.8524E-02  0.4940E+00
      4.682  0.2248E-01  0.5037E+00
      4.883  0.3933E-01  0.5180E+00
      5.083  0.1286E-01  0.5281E+00
      5.283  0.1487E-01  0.5363E+00
      5.484  0.1797E-01  0.5467E+00
      5.684  0.1645E-01  0.5551E+00
      5.884  0.9330E-02  0.5611E+00
      6.085  0.0000E+00  0.5628E+00
      6.285  0.0000E+00  0.5628E+00
      6.485  0.0000E+00  0.5628E+00
      6.686  0.1140E-02  0.5631E+00
      6.886  0.3806E-02  0.5643E+00
      7.087  0.1889E-01  0.5742E+00
      7.287  0.8922E-02  0.5811E+00
      7.487  0.1275E-01  0.5890E+00
      7.688  0.7982E-02  0.5935E+00
      7.888  0.1202E-01  0.5980E+00
      8.088  0.5632E-02  0.6019E+00
      8.289  0.1558E-02  0.6027E+00
      8.489  0.0000E+00  0.6030E+00
      8.689  0.0000E+00  0.6030E+00
      8.890  0.0000E+00  0.6030E+00
      9.090  0.0000E+00  0.6030E+00
      9.290  0.0000E+00  0.6030E+00
      9.491  0.0000E+00  0.6030E+00
      9.691  0.0000E+00  0.6030E+00
      9.892  0.0000E+00  0.6030E+00
     10.092  0.0000E+00  0.6030E+00
     10.292  0.0000E+00  0.6030E+00
     10.493  0.0000E+00  0.6030E+00
     10.693  0.0000E+00  0.6030E+00
     10.893  0.0000E+00  0.6030E+00
     11.094  0.0000E+00  0.6030E+00
     11.09364836    -49.01277761  301      4.65095361      1.00000000
    -49.013  0.0000E+00  0.0000E+00  0.0000E+00  0.0000E+00  0.0000E+00  0.0000E+00  0.0000E+00  0.0000E+00  0.0000E+00
    -48.812  0.0000E+00  0.0000E+00  0.0000E+00  0.0000E+00  0.0000E+00  0.0000E+00  0.0000E+00  0.0000E+00  0.0000E+00
    -48.612  0.0000E+00  0.0000E+00  0.0000E+00  0.0000E+00  0.0000E+00  0.0000E+00  0.0000E+00  0.0000E+00  0.0000E+00
    -48.412  0.0000E+00  0.0000E+00  0.0000E+00  0.0000E+00  0.0000E+00  0.0000E+00  0.0000E+00  0.0000E+00  0.0000E+00
    -48.211  0.0000E+00  0.0000E+00  0.0000E+00  0.0000E+00  0.0000E+00  0.0000E+00  0.0000E+00  0.0000E+00  0.0000E+00
    -48.011  0.0000E+00  0.0000E+00  0.0000E+00  0.0000E+00  0.0000E+00  0.0000E+00  0.0000E+00  0.0000E+00  0.0000E+00
    -47.811  0.0000E+00  0.0000E+00  0.0000E+00  0.0000E+00  0.0000E+00  0.0000E+00  0.0000E+00  0.0000E+00  0.0000E+00
    -47.610  0.0000E+00  0.0000E+00  0.0000E+00  0.0000E+00  0.0000E+00  0.0000E+00  0.0000E+00  0.0000E+00  0.0000E+00
    -47.410  0.0000E+00  0.0000E+00  0.0000E+00  0.0000E+00  0.0000E+00  0.0000E+00  0.0000E+00  0.0000E+00  0.0000E+00
    -47.210  0.0000E+00  0.0000E+00  0.0000E+00  0.0000E+00  0.0000E+00  0.0000E+00  0.0000E+00  0.0000E+00  0.0000E+00
    -47.009  0.0000E+00  0.0000E+00  0.0000E+00  0.0000E+00  0.0000E+00  0.0000E+00  0.0000E+00  0.0000E+00  0.0000E+00
    -46.809  0.0000E+00  0.0000E+00  0.0000E+00  0.0000E+00  0.0000E+00  0.0000E+00  0.0000E+00  0.0000E+00  0.0000E+00
    -46.609  0.0000E+00  0.0000E+00  0.0000E+00  0.0000E+00  0.0000E+00  0.0000E+00  0.0000E+00  0.0000E+00  0.0000E+00
    -46.408  0.0000E+00  0.0000E+00  0.0000E+00  0.0000E+00  0.0000E+00  0.0000E+00  0.0000E+00  0.0000E+00  0.0000E+00
    -46.208  0.5482E-04  0.5777E-01  0.5640E-01  0.3543E+01  0.5450E-05  0.3816E-05  0.2264E-04  0.7095E-05  0.5461E-04
    -46.007  0.4321E-04  0.2393E+01  0.7039E+01  0.2823E+01  0.3604E-05  0.7541E-04  0.3212E-04  0.3182E-04  0.7831E-04
    -45.807  0.0000E+00  0.0000E+00  0.0000E+00  0.0000E+00  0.0000E+00  0.0000E+00  0.0000E+00  0.0000E+00  0.0000E+00
    -45.607  0.0000E+00  0.0000E+00  0.0000E+00  0.0000E+00  0.0000E+00  0.0000E+00  0.0000E+00  0.0000E+00  0.0000E+00
    -45.406  0.0000E+00  0.0000E+00  0.0000E+00  0.0000E+00  0.0000E+00  0.0000E+00  0.0000E+00  0.0000E+00  0.0000E+00
    -45.206  0.0000E+00  0.0000E+00  0.0000E+00  0.0000E+00  0.0000E+00  0.0000E+00  0.0000E+00  0.0000E+00  0.0000E+00
    -45.006  0.0000E+00  0.0000E+00  0.0000E+00  0.0000E+00  0.0000E+00  0.0000E+00  0.0000E+00  0.0000E+00  0.0000E+00
    -44.805  0.0000E+00  0.0000E+00  0.0000E+00  0.0000E+00  0.0000E+00  0.0000E+00  0.0000E+00  0.0000E+00  0.0000E+00
    -44.605  0.0000E+00  0.0000E+00  0.0000E+00  0.0000E+00  0.0000E+00  0.0000E+00  0.0000E+00  0.0000E+00  0.0000E+00
    -44.405  0.0000E+00  0.0000E+00  0.0000E+00  0.0000E+00  0.0000E+00  0.0000E+00  0.0000E+00  0.0000E+00  0.0000E+00
    -44.204  0.0000E+00  0.0000E+00  0.0000E+00  0.0000E+00  0.0000E+00  0.0000E+00  0.0000E+00  0.0000E+00  0.0000E+00
    -44.004  0.0000E+00  0.0000E+00  0.0000E+00  0.0000E+00  0.0000E+00  0.0000E+00  0.0000E+00  0.0000E+00  0.0000E+00
    -43.804  0.0000E+00  0.0000E+00  0.0000E+00  0.0000E+00  0.0000E+00  0.0000E+00  0.0000E+00  0.0000E+00  0.0000E+00
    -43.603  0.0000E+00  0.0000E+00  0.0000E+00  0.0000E+00  0.0000E+00  0.0000E+00  0.0000E+00  0.0000E+00  0.0000E+00
    -43.403  0.0000E+00  0.0000E+00  0.0000E+00  0.0000E+00  0.0000E+00  0.0000E+00  0.0000E+00  0.0000E+00  0.0000E+00
    -43.202  0.0000E+00  0.0000E+00  0.0000E+00  0.0000E+00  0.0000E+00  0.0000E+00  0.0000E+00  0.0000E+00  0.0000E+00
    -43.002  0.0000E+00  0.0000E+00  0.0000E+00  0.0000E+00  0.0000E+00  0.0000E+00  0.0000E+00  0.0000E+00  0.0000E+00
    -42.802  0.0000E+00  0.0000E+00  0.0000E+00  0.0000E+00  0.0000E+00  0.0000E+00  0.0000E+00  0.0000E+00  0.0000E+00
    -42.601  0.0000E+00  0.0000E+00  0.0000E+00  0.0000E+00  0.0000E+00  0.0000E+00  0.0000E+00  0.0000E+00  0.0000E+00
    -42.401  0.0000E+00  0.0000E+00  0.0000E+00  0.0000E+00  0.0000E+00  0.0000E+00  0.0000E+00  0.0000E+00  0.0000E+00
    -42.201  0.0000E+00  0.0000E+00  0.0000E+00  0.0000E+00  0.0000E+00  0.0000E+00  0.0000E+00  0.0000E+00  0.0000E+00
    -42.000  0.0000E+00  0.0000E+00  0.0000E+00  0.0000E+00  0.0000E+00  0.0000E+00  0.0000E+00  0.0000E+00  0.0000E+00
    -41.800  0.0000E+00  0.0000E+00  0.0000E+00  0.0000E+00  0.0000E+00  0.0000E+00  0.0000E+00  0.0000E+00  0.0000E+00
    -41.600  0.0000E+00  0.0000E+00  0.0000E+00  0.0000E+00  0.0000E+00  0.0000E+00  0.0000E+00  0.0000E+00  0.0000E+00
    -41.399  0.0000E+00  0.0000E+00  0.0000E+00  0.0000E+00  0.0000E+00  0.0000E+00  0.0000E+00  0.0000E+00  0.0000E+00
    -41.199  0.0000E+00  0.0000E+00  0.0000E+00  0.0000E+00  0.0000E+00  0.0000E+00  0.0000E+00  0.0000E+00  0.0000E+00
    -40.999  0.0000E+00  0.0000E+00  0.0000E+00  0.0000E+00  0.0000E+00  0.0000E+00  0.0000E+00  0.0000E+00  0.0000E+00
    -40.798  0.0000E+00  0.0000E+00  0.0000E+00  0.0000E+00  0.0000E+00  0.0000E+00  0.0000E+00  0.0000E+00  0.0000E+00
    -40.598  0.0000E+00  0.0000E+00  0.0000E+00  0.0000E+00  0.0000E+00  0.0000E+00  0.0000E+00  0.0000E+00  0.0000E+00
    -40.398  0.0000E+00  0.0000E+00  0.0000E+00  0.0000E+00  0.0000E+00  0.0000E+00  0.0000E+00  0.0000E+00  0.0000E+00
    -40.197  0.0000E+00  0.0000E+00  0.0000E+00  0.0000E+00  0.0000E+00  0.0000E+00  0.0000E+00  0.0000E+00  0.0000E+00
    -39.997  0.0000E+00  0.0000E+00  0.0000E+00  0.0000E+00  0.0000E+00  0.0000E+00  0.0000E+00  0.0000E+00  0.0000E+00
    -39.796  0.0000E+00  0.0000E+00  0.0000E+00  0.0000E+00  0.0000E+00  0.0000E+00  0.0000E+00  0.0000E+00  0.0000E+00
    -39.596  0.0000E+00  0.0000E+00  0.0000E+00  0.0000E+00  0.0000E+00  0.0000E+00  0.0000E+00  0.0000E+00  0.0000E+00
    -39.396  0.0000E+00  0.0000E+00  0.0000E+00  0.0000E+00  0.0000E+00  0.0000E+00  0.0000E+00  0.0000E+00  0.0000E+00
    -39.195  0.0000E+00  0.0000E+00  0.0000E+00  0.0000E+00  0.0000E+00  0.0000E+00  0.0000E+00  0.0000E+00  0.0000E+00
    -38.995  0.0000E+00  0.0000E+00  0.0000E+00  0.0000E+00  0.0000E+00  0.0000E+00  0.0000E+00  0.0000E+00  0.0000E+00
    -38.795  0.0000E+00  0.0000E+00  0.0000E+00  0.0000E+00  0.0000E+00  0.0000E+00  0.0000E+00  0.0000E+00  0.0000E+00
    -38.594  0.0000E+00  0.0000E+00  0.0000E+00  0.0000E+00  0.0000E+00  0.0000E+00  0.0000E+00  0.0000E+00  0.0000E+00
    -38.394  0.0000E+00  0.0000E+00  0.0000E+00  0.0000E+00  0.0000E+00  0.0000E+00  0.0000E+00  0.0000E+00  0.0000E+00
    -38.194  0.0000E+00  0.0000E+00  0.0000E+00  0.0000E+00  0.0000E+00  0.0000E+00  0.0000E+00  0.0000E+00  0.0000E+00
    -37.993  0.0000E+00  0.0000E+00  0.0000E+00  0.0000E+00  0.0000E+00  0.0000E+00  0.0000E+00  0.0000E+00  0.0000E+00
    -37.793  0.0000E+00  0.0000E+00  0.0000E+00  0.0000E+00  0.0000E+00  0.0000E+00  0.0000E+00  0.0000E+00  0.0000E+00
    -37.593  0.0000E+00  0.0000E+00  0.0000E+00  0.0000E+00  0.0000E+00  0.0000E+00  0.0000E+00  0.0000E+00  0.0000E+00
    -37.392  0.0000E+00  0.0000E+00  0.0000E+00  0.0000E+00  0.0000E+00  0.0000E+00  0.0000E+00  0.0000E+00  0.0000E+00
    -37.192  0.0000E+00  0.0000E+00  0.0000E+00  0.0000E+00  0.0000E+00  0.0000E+00  0.0000E+00  0.0000E+00  0.0000E+00
    -36.991  0.0000E+00  0.0000E+00  0.0000E+00  0.0000E+00  0.0000E+00  0.0000E+00  0.0000E+00  0.0000E+00  0.0000E+00
    -36.791  0.0000E+00  0.0000E+00  0.0000E+00  0.0000E+00  0.0000E+00  0.0000E+00  0.0000E+00  0.0000E+00  0.0000E+00
    -36.591  0.0000E+00  0.0000E+00  0.0000E+00  0.0000E+00  0.0000E+00  0.0000E+00  0.0000E+00  0.0000E+00  0.0000E+00
    -36.390  0.0000E+00  0.0000E+00  0.0000E+00  0.0000E+00  0.0000E+00  0.0000E+00  0.0000E+00  0.0000E+00  0.0000E+00
    -36.190  0.0000E+00  0.0000E+00  0.0000E+00  0.0000E+00  0.0000E+00  0.0000E+00  0.0000E+00  0.0000E+00  0.0000E+00
    -35.990  0.0000E+00  0.0000E+00  0.0000E+00  0.0000E+00  0.0000E+00  0.0000E+00  0.0000E+00  0.0000E+00  0.0000E+00
    -35.789  0.0000E+00  0.0000E+00  0.0000E+00  0.0000E+00  0.0000E+00  0.0000E+00  0.0000E+00  0.0000E+00  0.0000E+00
    -35.589  0.0000E+00  0.0000E+00  0.0000E+00  0.0000E+00  0.0000E+00  0.0000E+00  0.0000E+00  0.0000E+00  0.0000E+00
    -35.389  0.0000E+00  0.0000E+00  0.0000E+00  0.0000E+00  0.0000E+00  0.0000E+00  0.0000E+00  0.0000E+00  0.0000E+00
    -35.188  0.0000E+00  0.0000E+00  0.0000E+00  0.0000E+00  0.0000E+00  0.0000E+00  0.0000E+00  0.0000E+00  0.0000E+00
    -34.988  0.0000E+00  0.0000E+00  0.0000E+00  0.0000E+00  0.0000E+00  0.0000E+00  0.0000E+00  0.0000E+00  0.0000E+00
    -34.788  0.0000E+00  0.0000E+00  0.0000E+00  0.0000E+00  0.0000E+00  0.0000E+00  0.0000E+00  0.0000E+00  0.0000E+00
    -34.587  0.0000E+00  0.0000E+00  0.0000E+00  0.0000E+00  0.0000E+00  0.0000E+00  0.0000E+00  0.0000E+00  0.0000E+00
    -34.387  0.0000E+00  0.0000E+00  0.0000E+00  0.0000E+00  0.0000E+00  0.0000E+00  0.0000E+00  0.0000E+00  0.0000E+00
    -34.187  0.0000E+00  0.0000E+00  0.0000E+00  0.0000E+00  0.0000E+00  0.0000E+00  0.0000E+00  0.0000E+00  0.0000E+00
    -33.986  0.0000E+00  0.0000E+00  0.0000E+00  0.0000E+00  0.0000E+00  0.0000E+00  0.0000E+00  0.0000E+00  0.0000E+00
    -33.786  0.0000E+00  0.0000E+00  0.0000E+00  0.0000E+00  0.0000E+00  0.0000E+00  0.0000E+00  0.0000E+00  0.0000E+00
    -33.585  0.0000E+00  0.0000E+00  0.0000E+00  0.0000E+00  0.0000E+00  0.0000E+00  0.0000E+00  0.0000E+00  0.0000E+00
    -33.385  0.0000E+00  0.0000E+00  0.0000E+00  0.0000E+00  0.0000E+00  0.0000E+00  0.0000E+00  0.0000E+00  0.0000E+00
    -33.185  0.0000E+00  0.0000E+00  0.0000E+00  0.0000E+00  0.0000E+00  0.0000E+00  0.0000E+00  0.0000E+00  0.0000E+00
    -32.984  0.0000E+00  0.0000E+00  0.0000E+00  0.0000E+00  0.0000E+00  0.0000E+00  0.0000E+00  0.0000E+00  0.0000E+00
    -32.784  0.0000E+00  0.0000E+00  0.0000E+00  0.0000E+00  0.0000E+00  0.0000E+00  0.0000E+00  0.0000E+00  0.0000E+00
    -32.584  0.0000E+00  0.0000E+00  0.0000E+00  0.0000E+00  0.0000E+00  0.0000E+00  0.0000E+00  0.0000E+00  0.0000E+00
    -32.383  0.0000E+00  0.0000E+00  0.0000E+00  0.0000E+00  0.0000E+00  0.0000E+00  0.0000E+00  0.0000E+00  0.0000E+00
    -32.183  0.0000E+00  0.0000E+00  0.0000E+00  0.0000E+00  0.0000E+00  0.0000E+00  0.0000E+00  0.0000E+00  0.0000E+00
    -31.983  0.0000E+00  0.0000E+00  0.0000E+00  0.0000E+00  0.0000E+00  0.0000E+00  0.0000E+00  0.0000E+00  0.0000E+00
    -31.782  0.0000E+00  0.0000E+00  0.0000E+00  0.0000E+00  0.0000E+00  0.0000E+00  0.0000E+00  0.0000E+00  0.0000E+00
    -31.582  0.0000E+00  0.0000E+00  0.0000E+00  0.0000E+00  0.0000E+00  0.0000E+00  0.0000E+00  0.0000E+00  0.0000E+00
    -31.382  0.0000E+00  0.0000E+00  0.0000E+00  0.0000E+00  0.0000E+00  0.0000E+00  0.0000E+00  0.0000E+00  0.0000E+00
    -31.181  0.0000E+00  0.0000E+00  0.0000E+00  0.0000E+00  0.0000E+00  0.0000E+00  0.0000E+00  0.0000E+00  0.0000E+00
    -30.981  0.0000E+00  0.0000E+00  0.0000E+00  0.0000E+00  0.0000E+00  0.0000E+00  0.0000E+00  0.0000E+00  0.0000E+00
    -30.780  0.0000E+00  0.0000E+00  0.0000E+00  0.0000E+00  0.0000E+00  0.0000E+00  0.0000E+00  0.0000E+00  0.0000E+00
    -30.580  0.0000E+00  0.0000E+00  0.0000E+00  0.0000E+00  0.0000E+00  0.0000E+00  0.0000E+00  0.0000E+00  0.0000E+00
    -30.380  0.0000E+00  0.0000E+00  0.0000E+00  0.0000E+00  0.0000E+00  0.0000E+00  0.0000E+00  0.0000E+00  0.0000E+00
    -30.179  0.0000E+00  0.0000E+00  0.0000E+00  0.0000E+00  0.0000E+00  0.0000E+00  0.0000E+00  0.0000E+00  0.0000E+00
    -29.979  0.0000E+00  0.0000E+00  0.0000E+00  0.0000E+00  0.0000E+00  0.0000E+00  0.0000E+00  0.0000E+00  0.0000E+00
    -29.779  0.0000E+00  0.0000E+00  0.0000E+00  0.0000E+00  0.0000E+00  0.0000E+00  0.0000E+00  0.0000E+00  0.0000E+00
    -29.578  0.0000E+00  0.0000E+00  0.0000E+00  0.0000E+00  0.0000E+00  0.0000E+00  0.0000E+00  0.0000E+00  0.0000E+00
    -29.378  0.0000E+00  0.0000E+00  0.0000E+00  0.0000E+00  0.0000E+00  0.0000E+00  0.0000E+00  0.0000E+00  0.0000E+00
    -29.178  0.0000E+00  0.0000E+00  0.0000E+00  0.0000E+00  0.0000E+00  0.0000E+00  0.0000E+00  0.0000E+00  0.0000E+00
    -28.977  0.0000E+00  0.0000E+00  0.0000E+00  0.0000E+00  0.0000E+00  0.0000E+00  0.0000E+00  0.0000E+00  0.0000E+00
    -28.777  0.0000E+00  0.0000E+00  0.0000E+00  0.0000E+00  0.0000E+00  0.0000E+00  0.0000E+00  0.0000E+00  0.0000E+00
    -28.577  0.0000E+00  0.0000E+00  0.0000E+00  0.0000E+00  0.0000E+00  0.0000E+00  0.0000E+00  0.0000E+00  0.0000E+00
    -28.376  0.0000E+00  0.0000E+00  0.0000E+00  0.0000E+00  0.0000E+00  0.0000E+00  0.0000E+00  0.0000E+00  0.0000E+00
    -28.176  0.0000E+00  0.0000E+00  0.0000E+00  0.0000E+00  0.0000E+00  0.0000E+00  0.0000E+00  0.0000E+00  0.0000E+00
    -27.976  0.0000E+00  0.0000E+00  0.0000E+00  0.0000E+00  0.0000E+00  0.0000E+00  0.0000E+00  0.0000E+00  0.0000E+00
    -27.775  0.0000E+00  0.0000E+00  0.0000E+00  0.0000E+00  0.0000E+00  0.0000E+00  0.0000E+00  0.0000E+00  0.0000E+00
    -27.575  0.0000E+00  0.0000E+00  0.0000E+00  0.0000E+00  0.0000E+00  0.0000E+00  0.0000E+00  0.0000E+00  0.0000E+00
    -27.374  0.0000E+00  0.0000E+00  0.0000E+00  0.0000E+00  0.0000E+00  0.0000E+00  0.0000E+00  0.0000E+00  0.0000E+00
    -27.174  0.0000E+00  0.0000E+00  0.0000E+00  0.0000E+00  0.0000E+00  0.0000E+00  0.0000E+00  0.0000E+00  0.0000E+00
    -26.974  0.0000E+00  0.0000E+00  0.0000E+00  0.0000E+00  0.0000E+00  0.0000E+00  0.0000E+00  0.0000E+00  0.0000E+00
    -26.773  0.0000E+00  0.0000E+00  0.0000E+00  0.0000E+00  0.0000E+00  0.0000E+00  0.0000E+00  0.0000E+00  0.0000E+00
    -26.573  0.0000E+00  0.0000E+00  0.0000E+00  0.0000E+00  0.0000E+00  0.0000E+00  0.0000E+00  0.0000E+00  0.0000E+00
    -26.373  0.0000E+00  0.0000E+00  0.0000E+00  0.0000E+00  0.0000E+00  0.0000E+00  0.0000E+00  0.0000E+00  0.0000E+00
    -26.172  0.0000E+00  0.0000E+00  0.0000E+00  0.0000E+00  0.0000E+00  0.0000E+00  0.0000E+00  0.0000E+00  0.0000E+00
    -25.972  0.0000E+00  0.0000E+00  0.0000E+00  0.0000E+00  0.0000E+00  0.0000E+00  0.0000E+00  0.0000E+00  0.0000E+00
    -25.772  0.0000E+00  0.0000E+00  0.0000E+00  0.0000E+00  0.0000E+00  0.0000E+00  0.0000E+00  0.0000E+00  0.0000E+00
    -25.571  0.0000E+00  0.0000E+00  0.0000E+00  0.0000E+00  0.0000E+00  0.0000E+00  0.0000E+00  0.0000E+00  0.0000E+00
    -25.371  0.0000E+00  0.0000E+00  0.0000E+00  0.0000E+00  0.0000E+00  0.0000E+00  0.0000E+00  0.0000E+00  0.0000E+00
    -25.171  0.0000E+00  0.0000E+00  0.0000E+00  0.0000E+00  0.0000E+00  0.0000E+00  0.0000E+00  0.0000E+00  0.0000E+00
    -24.970  0.0000E+00  0.0000E+00  0.0000E+00  0.0000E+00  0.0000E+00  0.0000E+00  0.0000E+00  0.0000E+00  0.0000E+00
    -24.770  0.0000E+00  0.0000E+00  0.0000E+00  0.0000E+00  0.0000E+00  0.0000E+00  0.0000E+00  0.0000E+00  0.0000E+00
    -24.569  0.0000E+00  0.0000E+00  0.0000E+00  0.0000E+00  0.0000E+00  0.0000E+00  0.0000E+00  0.0000E+00  0.0000E+00
    -24.369  0.0000E+00  0.0000E+00  0.0000E+00  0.0000E+00  0.0000E+00  0.0000E+00  0.0000E+00  0.0000E+00  0.0000E+00
    -24.169  0.0000E+00  0.0000E+00  0.0000E+00  0.0000E+00  0.0000E+00  0.0000E+00  0.0000E+00  0.0000E+00  0.0000E+00
    -23.968  0.0000E+00  0.0000E+00  0.0000E+00  0.0000E+00  0.0000E+00  0.0000E+00  0.0000E+00  0.0000E+00  0.0000E+00
    -23.768  0.0000E+00  0.0000E+00  0.0000E+00  0.0000E+00  0.0000E+00  0.0000E+00  0.0000E+00  0.0000E+00  0.0000E+00
    -23.568  0.0000E+00  0.0000E+00  0.0000E+00  0.0000E+00  0.0000E+00  0.0000E+00  0.0000E+00  0.0000E+00  0.0000E+00
    -23.367  0.0000E+00  0.0000E+00  0.0000E+00  0.0000E+00  0.0000E+00  0.0000E+00  0.0000E+00  0.0000E+00  0.0000E+00
    -23.167  0.0000E+00  0.0000E+00  0.0000E+00  0.0000E+00  0.0000E+00  0.0000E+00  0.0000E+00  0.0000E+00  0.0000E+00
    -22.967  0.0000E+00  0.0000E+00  0.0000E+00  0.0000E+00  0.0000E+00  0.0000E+00  0.0000E+00  0.0000E+00  0.0000E+00
    -22.766  0.0000E+00  0.0000E+00  0.0000E+00  0.0000E+00  0.0000E+00  0.0000E+00  0.0000E+00  0.0000E+00  0.0000E+00
    -22.566  0.0000E+00  0.0000E+00  0.0000E+00  0.0000E+00  0.0000E+00  0.0000E+00  0.0000E+00  0.0000E+00  0.0000E+00
    -22.366  0.0000E+00  0.0000E+00  0.0000E+00  0.0000E+00  0.0000E+00  0.0000E+00  0.0000E+00  0.0000E+00  0.0000E+00
    -22.165  0.0000E+00  0.0000E+00  0.0000E+00  0.0000E+00  0.0000E+00  0.0000E+00  0.0000E+00  0.0000E+00  0.0000E+00
    -21.965  0.0000E+00  0.0000E+00  0.0000E+00  0.0000E+00  0.0000E+00  0.0000E+00  0.0000E+00  0.0000E+00  0.0000E+00
    -21.765  0.0000E+00  0.0000E+00  0.0000E+00  0.0000E+00  0.0000E+00  0.0000E+00  0.0000E+00  0.0000E+00  0.0000E+00
    -21.564  0.0000E+00  0.0000E+00  0.0000E+00  0.0000E+00  0.0000E+00  0.0000E+00  0.0000E+00  0.0000E+00  0.0000E+00
    -21.364  0.0000E+00  0.0000E+00  0.0000E+00  0.0000E+00  0.0000E+00  0.0000E+00  0.0000E+00  0.0000E+00  0.0000E+00
    -21.163  0.0000E+00  0.0000E+00  0.0000E+00  0.0000E+00  0.0000E+00  0.0000E+00  0.0000E+00  0.0000E+00  0.0000E+00
    -20.963  0.0000E+00  0.0000E+00  0.0000E+00  0.0000E+00  0.0000E+00  0.0000E+00  0.0000E+00  0.0000E+00  0.0000E+00
    -20.763  0.0000E+00  0.0000E+00  0.0000E+00  0.0000E+00  0.0000E+00  0.0000E+00  0.0000E+00  0.0000E+00  0.0000E+00
    -20.562  0.0000E+00  0.0000E+00  0.0000E+00  0.0000E+00  0.0000E+00  0.0000E+00  0.0000E+00  0.0000E+00  0.0000E+00
    -20.362  0.0000E+00  0.0000E+00  0.0000E+00  0.0000E+00  0.0000E+00  0.0000E+00  0.0000E+00  0.0000E+00  0.0000E+00
    -20.162  0.0000E+00  0.0000E+00  0.0000E+00  0.0000E+00  0.0000E+00  0.0000E+00  0.0000E+00  0.0000E+00  0.0000E+00
    -19.961  0.0000E+00  0.0000E+00  0.0000E+00  0.0000E+00  0.0000E+00  0.0000E+00  0.0000E+00  0.0000E+00  0.0000E+00
    -19.761  0.0000E+00  0.0000E+00  0.0000E+00  0.0000E+00  0.0000E+00  0.0000E+00  0.0000E+00  0.0000E+00  0.0000E+00
    -19.561  0.0000E+00  0.0000E+00  0.0000E+00  0.0000E+00  0.0000E+00  0.0000E+00  0.0000E+00  0.0000E+00  0.0000E+00
    -19.360  0.0000E+00  0.0000E+00  0.0000E+00  0.0000E+00  0.0000E+00  0.0000E+00  0.0000E+00  0.0000E+00  0.0000E+00
    -19.160  0.0000E+00  0.0000E+00  0.0000E+00  0.0000E+00  0.0000E+00  0.0000E+00  0.0000E+00  0.0000E+00  0.0000E+00
    -18.960  0.0000E+00  0.0000E+00  0.0000E+00  0.0000E+00  0.0000E+00  0.0000E+00  0.0000E+00  0.0000E+00  0.0000E+00
    -18.759  0.0000E+00  0.0000E+00  0.0000E+00  0.0000E+00  0.0000E+00  0.0000E+00  0.0000E+00  0.0000E+00  0.0000E+00
    -18.559  0.0000E+00  0.0000E+00  0.0000E+00  0.0000E+00  0.0000E+00  0.0000E+00  0.0000E+00  0.0000E+00  0.0000E+00
    -18.359  0.0000E+00  0.0000E+00  0.0000E+00  0.0000E+00  0.0000E+00  0.0000E+00  0.0000E+00  0.0000E+00  0.0000E+00
    -18.158  0.0000E+00  0.0000E+00  0.0000E+00  0.0000E+00  0.0000E+00  0.0000E+00  0.0000E+00  0.0000E+00  0.0000E+00
    -17.958  0.0000E+00  0.0000E+00  0.0000E+00  0.0000E+00  0.0000E+00  0.0000E+00  0.0000E+00  0.0000E+00  0.0000E+00
    -17.757  0.0000E+00  0.0000E+00  0.0000E+00  0.0000E+00  0.0000E+00  0.0000E+00  0.0000E+00  0.0000E+00  0.0000E+00