       N       E                     dE             d eps       ncg     rms          ort
SDA:   1    -0.123742546580E+03   -0.12374E+03    0.00000E+00  8040   0.717E+00 0.000E+00
CGA:   2    -0.123914495453E+03   -0.17195E+00   -0.17161E+00  8040   0.497E+00 0.575E-02
CGA:   3    -0.123946017379E+03   -0.31522E-01   -0.32020E-01  8040   0.931E+00-0.651E-02
CGA:   4    -0.123992315162E+03   -0.46298E-01   -0.47084E-01  8040   0.296E+00-0.113E+00
CGA:   5    -0.124000165031E+03   -0.78499E-02   -0.85834E-02  8040   0.102E+00-0.190E-01
CGA:   6    -0.124010261886E+03   -0.10097E-01   -0.99824E-02  8040   0.166E+00 0.324E-02
CGA:   7    -0.124015416003E+03   -0.51541E-02   -0.51811E-02  8040   0.325E-01 0.125E-04
CGA:   8    -0.124020403798E+03   -0.49878E-02   -0.49722E-02  8040   0.124E+00-0.100E-03
CGA:   9    -0.124020891696E+03   -0.48790E-03   -0.44999E-02  8040   0.370E-01-0.199E+00
CGA:  10    -0.124023737554E+03   -0.28459E-02   -0.28330E-02  8040   0.102E+00-0.189E-03
CGA:  11    -0.124029410348E+03   -0.56728E-02   -0.64016E-02  8040   0.148E-01-0.340E-02
CGA:  12    -0.124030124532E+03   -0.71418E-03   -0.79409E-03  8040   0.218E-01-0.838E-03
CGA:  13    -0.124031542991E+03   -0.14185E-02   -0.15216E-02  8040   0.118E-01-0.108E-03
CGA:  14    -0.124032041940E+03   -0.49895E-03   -0.54258E-03  8040   0.785E-02-0.455E-03
CGA:  15    -0.124032929116E+03   -0.88718E-03   -0.89908E-03  8040   0.133E-01 0.279E-03
CGA:  16    -0.124033411556E+03   -0.48244E-03   -0.42522E-03  8040   0.126E-02 0.220E-02
CGA:  17    -0.124033722256E+03   -0.31070E-03   -0.28646E-03  8040   0.407E-02 0.330E-03
CGA:  18    -0.124033918142E+03   -0.19589E-03   -0.20876E-03  8040   0.163E-02 0.103E-03
CGA:  19    -0.124034012176E+03   -0.94034E-04   -0.99774E-04  8040   0.131E-02 0.458E-04
CGA:  20    -0.124034114961E+03   -0.10278E-03   -0.10593E-03  8040   0.975E-03 0.482E-04
CGA:  21    -0.124034155366E+03   -0.40405E-04   -0.42675E-04  8040   0.452E-03 0.161E-04
CGA:  22    -0.124034182924E+03   -0.27558E-04   -0.29172E-04  8040   0.383E-03 0.266E-04
CGA:  23    -0.124034210382E+03   -0.27457E-04   -0.29276E-04  8040   0.262E-03 0.387E-04
CGA:  24    -0.124034221274E+03   -0.10893E-04   -0.12228E-04  8040   0.123E-03 0.181E-04
CGA:  25    -0.124034229454E+03   -0.81793E-05   -0.88090E-05  8040   0.105E-03 0.140E-04
CGA:  26    -0.124034237658E+03   -0.82044E-05   -0.86368E-05  8040   0.956E-04 0.125E-04
CGA:  27    -0.124034242384E+03   -0.47258E-05   -0.52380E-05  8040   0.566E-04 0.888E-05
CGA:  28    -0.124034245393E+03   -0.30094E-05   -0.34511E-05  8040   0.293E-04 0.931E-05
CGA:  29    -0.124034246871E+03   -0.14781E-05   -0.18872E-05  8040   0.174E-04 0.870E-05
CGA:  30    -0.124034247587E+03   -0.71573E-06   -0.10945E-05  8040   0.104E-04 0.739E-05
   1 F= -.12403425E+03 E0= -.12403398E+03  d E =-.124034E+03
       N       E                     dE             d eps       ncg     rms          ort
SDA:   1    -0.115744309024E+03    0.82899E+01    0.00000E+00  8040   0.478E+02 0.000E+00
CGA:   2    -0.121764206804E+03   -0.60199E+01   -0.60186E+01  8040   0.103E+02 0.263E-01
CGA:   3    -0.122300372505E+03   -0.53617E+00   -0.55169E+00  8040   0.160E+02-0.194E+00
CGA:   4    -0.123321348218E+03   -0.10210E+01   -0.99152E+00  8040   0.203E+01-0.299E+00
CGA:   5    -0.123547941275E+03   -0.22659E+00   -0.22696E+00  8040   0.591E+01-0.142E-01
CGA:   6    -0.123759066394E+03   -0.21113E+00   -0.23108E+00  8040   0.488E+00-0.469E+00
CGA:   7    -0.123785135856E+03   -0.26069E-01   -0.26027E-01  8040   0.891E+00-0.145E-02
CGA:   8    -0.123834267254E+03   -0.49131E-01   -0.42278E-01  8040   0.196E+00-0.361E-01
CGA:   9    -0.123844622884E+03   -0.10356E-01   -0.10160E-01  8040   0.356E+00-0.870E-03
CGA:  10    -0.123859023862E+03   -0.14401E-01   -0.11825E-01  8040   0.149E+00-0.290E-01
CGA:  11    -0.123861403507E+03   -0.23796E-02   -0.29203E-02  8040   0.154E+00-0.239E-01
CGA:  12    -0.123866427662E+03   -0.50242E-02   -0.34943E-02  8040   0.201E+00 0.570E-01
CGA:  13    -0.123870673502E+03   -0.42458E-02   -0.33114E-02  8040   0.105E+00 0.259E-01
CGA:  14    -0.123872021514E+03   -0.13480E-02   -0.13997E-02  8040   0.166E+00-0.121E-01
CGA:  15    -0.123872615500E+03   -0.59399E-03   -0.17773E-02  8040   0.279E+00-0.964E-01
CGA:  16    -0.123876744309E+03   -0.41288E-02   -0.55817E-02  8040   0.159E+00-0.567E-01
CGA:  17    -0.123887810807E+03   -0.11066E-01   -0.10383E-01  8040   0.581E-01 0.279E-01
CGA:  18    -0.123890343650E+03   -0.25328E-02   -0.27186E-02  8040   0.607E-01-0.958E-03
CGA:  19    -0.123894667164E+03   -0.43235E-02   -0.42991E-02  8040   0.458E-01 0.204E-02
CGA:  20    -0.123896307850E+03   -0.16407E-02   -0.16974E-02  8040   0.151E-01-0.471E-03
CGA:  21    -0.123897009609E+03   -0.70176E-03   -0.72649E-03  8040   0.131E-01 0.261E-03
CGA:  22    -0.123897779398E+03   -0.76979E-03   -0.77336E-03  8040   0.106E-01 0.189E-03
CGA:  23    -0.123898485977E+03   -0.70658E-03   -0.70693E-03  8040   0.951E-02-0.159E-03
CGA:  24    -0.123898875095E+03   -0.38912E-03   -0.38130E-03  8040   0.576E-02-0.421E-04
CGA:  25    -0.123899203189E+03   -0.32809E-03   -0.32956E-03  8040   0.437E-02 0.976E-04
CGA:  26    -0.123899530142E+03   -0.32695E-03   -0.32296E-03  8040   0.335E-02 0.199E-03
CGA:  27    -0.123899676281E+03   -0.14614E-03   -0.14920E-03  8040   0.213E-02-0.718E-05
CGA:  28    -0.123899778356E+03   -0.10208E-03   -0.10366E-03  8040   0.124E-02 0.200E-04
CGA:  29    -0.123899856607E+03   -0.78250E-04   -0.78106E-04  8040   0.929E-03 0.364E-04
CGA:  30    -0.123899910390E+03   -0.53783E-04   -0.53864E-04  8040   0.810E-03-0.247E-05
CGA:  31    -0.123899960162E+03   -0.49772E-04   -0.49759E-04  8040   0.683E-03 0.545E-06
CGA:  32    -0.123899998125E+03   -0.37963E-04   -0.38028E-04  8040   0.487E-03 0.336E-05
CGA:  33    -0.123900024811E+03   -0.26686E-04   -0.26800E-04  8040   0.302E-03 0.122E-04
CGA:  34    -0.123900045384E+03   -0.20572E-04   -0.20453E-04  8040   0.235E-03 0.170E-04
CGA:  35    -0.123900059597E+03   -0.14213E-04   -0.14253E-04  8040   0.221E-03 0.101E-04
CGA:  36    -0.123900074471E+03   -0.14873E-04   -0.14845E-04  8040   0.176E-03 0.546E-05
CGA:  37    -0.123900088301E+03   -0.13830E-04   -0.13894E-04  8040   0.156E-03-0.469E-05
CGA:  38    -0.123900097013E+03   -0.87123E-05   -0.86797E-05  8040   0.120E-03-0.805E-05
CGA:  39    -0.123900103357E+03   -0.63439E-05   -0.63042E-05  8040   0.747E-04-0.732E-05
CGA:  40    -0.123900108278E+03   -0.49210E-05   -0.49518E-05  8040   0.697E-04-0.331E-05
CGA:  41    -0.123900112527E+03   -0.42490E-05   -0.42463E-05  8040   0.529E-04 0.997E-06
CGA:  42    -0.123900115758E+03   -0.32313E-05   -0.32356E-05  8040   0.331E-04 0.385E-05
CGA:  43    -0.123900117880E+03   -0.21214E-05   -0.21273E-05  8040   0.308E-04 0.395E-05
CGA:  44    -0.123900120354E+03   -0.24744E-05   -0.24332E-05  8040   0.270E-04 0.451E-05
CGA:  45    -0.123900122888E+03   -0.25334E-05   -0.24765E-05  8040   0.234E-04 0.301E-05
SDA:  46    -0.123900124444E+03   -0.15560E-05   -0.15580E-05  8040   0.211E-04 0.610E-06
CGA:  47    -0.123900124912E+03   -0.46834E-06   -0.45600E-06  8040   0.353E-05-0.340E-06
CGA:  48    -0.123900125352E+03   -0.43977E-06    0.22935E-05  8040   0.289E-05 0.294E-05
   2 F= -.12390013E+03 E0= -.12389993E+03  d E =0.134122E+00
       N       E                     dE             d eps       ncg     rms          ort
SDA:   1    -0.120778431143E+03    0.31217E+01    0.00000E+00  8040   0.208E+02 0.000E+00
CGA:   2    -0.123253879254E+03   -0.24754E+01   -0.24764E+01  8040   0.377E+01-0.165E-01
CGA:   3    -0.123503082803E+03   -0.24920E+00   -0.24852E+00  8040   0.663E+01-0.865E-01
CGA:   4    -0.123881341975E+03   -0.37826E+00   -0.37157E+00  8040   0.839E+00-0.212E+00
CGA:   5    -0.123969648736E+03   -0.88307E-01   -0.87648E-01  8040   0.181E+01 0.139E-01
CGA:   6    -0.124055872040E+03   -0.86223E-01   -0.76767E-01  8040   0.209E+00-0.749E-02
CGA:   7    -0.124069659809E+03   -0.13788E-01   -0.13764E-01  8040   0.304E+00-0.268E-02
CGA:   8    -0.124087693624E+03   -0.18034E-01   -0.17105E-01  8040   0.148E+00-0.146E-01
CGA:   9    -0.124092047005E+03   -0.43534E-02   -0.44141E-02  8040   0.564E-01-0.966E-03
CGA:  10    -0.124095943420E+03   -0.38964E-02   -0.39088E-02  8040   0.969E-01-0.209E-02
CGA:  11    -0.124100066163E+03   -0.41227E-02   -0.33979E-02  8040   0.170E-01 0.118E-01
CGA:  12    -0.124101333413E+03   -0.12672E-02   -0.12669E-02  8040   0.533E-01 0.109E-03
CGA:  13    -0.124102908728E+03   -0.15753E-02   -0.94448E-03  8040   0.387E-01 0.335E-01
CGA:  14    -0.124103689895E+03   -0.78117E-03   -0.78641E-03  8040   0.106E-01-0.378E-03
CGA:  15    -0.124105656968E+03   -0.19671E-02   -0.16043E-02  8040   0.305E-02 0.386E-02
CGA:  16    -0.124106366038E+03   -0.70907E-03   -0.67767E-03  8040   0.138E-01 0.328E-03
CGA:  17    -0.124106873824E+03   -0.50779E-03   -0.29764E-03  8040   0.925E-02 0.105E-01
CGA:  18    -0.124107156402E+03   -0.28258E-03   -0.28271E-03  8040   0.129E-02-0.535E-05
CGA:  19    -0.124107294922E+03   -0.13852E-03   -0.13673E-03  8040   0.515E-02 0.344E-04
CGA:  20    -0.124107461883E+03   -0.16696E-03   -0.55108E-03  8040   0.357E-02-0.105E-01
CGA:  21    -0.124107829973E+03   -0.36809E-03   -0.35110E-03  8040   0.525E-02 0.462E-03
CGA:  22    -0.124108040328E+03   -0.21035E-03   -0.22486E-03  8040   0.142E-02-0.130E-03
CGA:  23    -0.124108105881E+03   -0.65553E-04   -0.67942E-04  8040   0.686E-03 0.133E-04
CGA:  24    -0.124108147088E+03   -0.41207E-04   -0.41607E-04  8040   0.551E-03 0.163E-04
CGA:  25    -0.124108186019E+03   -0.38931E-04   -0.38902E-04  8040   0.545E-03 0.142E-04
CGA:  26    -0.124108225404E+03   -0.39385E-04   -0.39369E-04  8040   0.539E-03 0.415E-06
CGA:  27    -0.124108259535E+03   -0.34131E-04   -0.34083E-04  8040   0.393E-03-0.104E-04
CGA:  28    -0.124108280170E+03   -0.20635E-04   -0.20547E-04  8040   0.195E-03-0.850E-05
CGA:  29    -0.124108290029E+03   -0.98592E-05   -0.97953E-05  8040   0.111E-03-0.540E-05
CGA:  30    -0.124108296553E+03   -0.65243E-05   -0.65164E-05  8040   0.850E-04-0.243E-05
CGA:  31    -0.124108301669E+03   -0.51158E-05   -0.51172E-05  8040   0.600E-04-0.219E-06
CGA:  32    -0.124108304854E+03   -0.31848E-05   -0.31964E-05  8040   0.343E-04 0.359E-06
CGA:  33    -0.124108306855E+03   -0.20011E-05   -0.20050E-05  8040   0.254E-04 0.243E-06
CGA:  34    -0.124108308649E+03   -0.17942E-05   -0.17963E-05  8040   0.270E-04-0.522E-06
CGA:  35    -0.124108310523E+03   -0.18737E-05   -0.18831E-05  8040   0.250E-04-0.174E-05
CGA:  36    -0.124108311888E+03   -0.13649E-05   -0.13492E-05  8040   0.153E-04-0.216E-05
CGA:  37    -0.124108312652E+03   -0.76383E-06   -0.74476E-06  8040   0.991E-05-0.164E-05
   3 F= -.12410831E+03 E0= -.12410800E+03  d E =-.740651E-01
       N       E                     dE             d eps       ncg     rms          ort
SDA:   1    -0.124108000396E+03    0.31149E-03    0.00000E+00  8040   0.237E-02 0.000E+00
CGA:   2    -0.124108200945E+03   -0.20055E-03   -0.19370E-03  8040   0.168E-02 0.403E-03
CGA:   3    -0.124108251499E+03   -0.50554E-04   -0.55376E-04  8040   0.375E-03 0.132E-03
CGA:   4    -0.124108287639E+03   -0.36140E-04   -0.34131E-04  8040   0.285E-03 0.978E-04
CGA:   5    -0.124108304063E+03   -0.16424E-04   -0.16800E-04  8040   0.214E-03 0.213E-04
CGA:   6    -0.124108319268E+03   -0.15205E-04   -0.15212E-04  8040   0.105E-03-0.318E-05
CGA:   7    -0.124108325015E+03   -0.57471E-05   -0.56456E-05  8040   0.107E-03-0.105E-04
CGA:   8    -0.124108332325E+03   -0.73104E-05   -0.76459E-05  8040   0.614E-04-0.214E-04
CGA:   9    -0.124108334034E+03   -0.17093E-05   -0.15518E-05  8040   0.177E-04-0.475E-05
CGA:  10    -0.124108335947E+03   -0.19122E-05   -0.34814E-05  8040   0.722E-04-0.105E-04
CGA:  11    -0.124108337519E+03   -0.15721E-05   -0.14747E-05  8040   0.943E-05-0.184E-05
CGA:  12    -0.124108338804E+03   -0.12848E-05    0.94991E-05  8040   0.413E-05 0.417E-05
CGA:  13    -0.124108338845E+03   -0.41526E-07   -0.12334E-05  8040   0.595E-04-0.855E-05
CGA:  14    -0.124108340016E+03   -0.11709E-05   -0.12865E-05  8040   0.511E-05 0.226E-05
CGA:  15    -0.124108340052E+03   -0.36127E-07   -0.14935E-06  8040   0.232E-05 0.257E-05
   4 F= -.12410834E+03 E0= -.12410802E+03  d E =-.740925E-01
       N       E                     dE             d eps       ncg     rms          ort
SDA:   1    -0.123718735770E+03    0.38960E+00    0.00000E+00  8040   0.160E+01 0.000E+00
CGA:   2    -0.123936478587E+03   -0.21774E+00   -0.21758E+00  8040   0.743E+00 0.276E-02
CGA:   3    -0.123960463062E+03   -0.23984E-01   -0.24089E-01  8040   0.522E+00-0.381E-02
CGA:   4    -0.124053428074E+03   -0.92965E-01   -0.93146E-01  8040   0.195E+00-0.193E-02
CGA:   5    -0.124075060415E+03   -0.21632E-01   -0.21628E-01  8040   0.458E+00 0.165E-03
CGA:   6    -0.124091278295E+03   -0.16218E-01   -0.16089E-01  8040   0.609E-01 0.189E-02
CGA:   7    -0.124097918677E+03   -0.66404E-02   -0.66369E-02  8040   0.122E+00 0.957E-04
CGA:   8    -0.124104988955E+03   -0.70703E-02   -0.70732E-02  8040   0.361E-01 0.967E-04
CGA:   9    -0.124106169223E+03   -0.11803E-02   -0.11849E-02  8040   0.185E-01-0.356E-04
CGA:  10    -0.124109438156E+03   -0.32689E-02   -0.32647E-02  8040   0.184E-01 0.387E-04
CGA:  11    -0.124109920782E+03   -0.48263E-03   -0.48344E-03  8040   0.409E-02-0.113E-04
CGA:  12    -0.124110684191E+03   -0.76341E-03   -0.76886E-03  8040   0.782E-02-0.489E-04
CGA:  13    -0.124110917418E+03   -0.23323E-03   -0.23233E-03  8040   0.128E-02-0.258E-04
CGA:  14    -0.124110987858E+03   -0.70440E-04   -0.69849E-04  8040   0.129E-02-0.239E-04
CGA:  15    -0.124111127311E+03   -0.13945E-03   -0.14174E-03  8040   0.601E-03-0.660E-04
CGA:  16    -0.124111142662E+03   -0.15351E-04   -0.15471E-04  8040   0.203E-03 0.225E-05
CGA:  17    -0.124111173613E+03   -0.30951E-04   -0.27610E-04  8040   0.138E-03 0.566E-04
CGA:  18    -0.124111180865E+03   -0.72525E-05   -0.77037E-05  8040   0.110E-03 0.123E-04
CGA:  19    -0.124111192493E+03   -0.11628E-04   -0.11359E-04  8040   0.754E-04 0.157E-04
CGA:  20    -0.124111196786E+03   -0.42921E-05   -0.42934E-05  8040   0.348E-04 0.418E-07
CGA:  21    -0.124111201999E+03   -0.52136E-05   -0.73880E-05  8040   0.104E-03-0.161E-04
CGA:  22    -0.124111203594E+03   -0.15947E-05   -0.14373E-05  8040   0.434E-04-0.283E-05
CGA:  23    -0.124111204592E+03   -0.99794E-06   -0.11261E-05  8040   0.271E-04 0.236E-05
CGA:  24    -0.124111205470E+03   -0.87800E-06   -0.11389E-05  8040   0.329E-04 0.676E-05
CGA:  25    -0.124111206738E+03   -0.12683E-05   -0.16553E-05  8040   0.170E-04 0.107E-04
CGA:  26    -0.124111207207E+03   -0.46843E-06   -0.61374E-06  8040   0.773E-05 0.306E-05
CGA:  27    -0.124111208425E+03   -0.12185E-05   -0.11755E-05  8040   0.223E-04 0.769E-06
CGA:  28    -0.124111209310E+03   -0.88525E-06   -0.85946E-06  8040   0.381E-05-0.643E-06
   5 F= -.12411121E+03 E0= -.12411094E+03  d E =-.286926E-02
       N       E                     dE             d eps       ncg     rms          ort
SDA:   1    -0.124095045021E+03    0.16163E-01    0.00000E+00  8040   0.671E-01 0.000E+00
CGA:   2    -0.124103822493E+03   -0.87775E-02   -0.88183E-02  8040   0.479E-01-0.690E-03
CGA:   3    -0.124105050983E+03   -0.12285E-02   -0.12262E-02  8040   0.174E-01-0.940E-04
CGA:   4    -0.124109002255E+03   -0.39513E-02   -0.39155E-02  8040   0.780E-02 0.235E-03
CGA:   5    -0.124109900840E+03   -0.89858E-03   -0.89917E-03  8040   0.180E-01-0.140E-04
CGA:   6    -0.124110574544E+03   -0.67370E-03   -0.67258E-03  8040   0.241E-02-0.483E-05
CGA:   7    -0.124110827450E+03   -0.25291E-03   -0.25307E-03  8040   0.688E-02-0.550E-05
CGA:   8    -0.124111143058E+03   -0.31561E-03   -0.31530E-03  8040   0.798E-03-0.657E-05
CGA:   9    -0.124111206646E+03   -0.63588E-04   -0.63593E-04  8040   0.121E-02-0.723E-05
CGA:  10    -0.124111333319E+03   -0.12667E-03   -0.12717E-03  8040   0.309E-03-0.185E-04
CGA:  11    -0.124111343304E+03   -0.99845E-05   -0.10026E-04  8040   0.215E-03 0.928E-06
CGA:  12    -0.124111377948E+03   -0.34644E-04   -0.33567E-04  8040   0.103E-03 0.140E-04
CGA:  13    -0.124111381000E+03   -0.30518E-05   -0.32008E-05  8040   0.334E-04 0.286E-05
CGA:  14    -0.124111384970E+03   -0.39700E-05   -0.37322E-05  8040   0.308E-04 0.809E-05
CGA:  15    -0.124111386671E+03   -0.17013E-05   -0.17817E-05  8040   0.153E-04 0.236E-05
CGA:  16    -0.124111387655E+03   -0.98405E-06   -0.96617E-06  8040   0.190E-04-0.884E-06
CGA:  17    -0.124111389030E+03   -0.13745E-05   -0.13670E-05  8040   0.109E-04-0.465E-05
CGA:  18    -0.124111389580E+03   -0.55043E-06   -0.49208E-06  8040   0.785E-05-0.324E-05
   6 F= -.12411139E+03 E0= -.12411111E+03  d E =-.304953E-02
       N       E                     dE             d eps       ncg     rms          ort
SDA:   1    -0.124055576613E+03    0.55812E-01    0.00000E+00  8040   0.152E+00 0.000E+00
CGA:   2    -0.124091191595E+03   -0.35615E-01   -0.35461E-01  8040   0.169E+00 0.992E-03
CGA:   3    -0.124096432584E+03   -0.52410E-02   -0.52357E-02  8040   0.100E+00-0.252E-03
CGA:   4    -0.124108304344E+03   -0.11872E-01   -0.11900E-01  8040   0.188E-01-0.773E-03
CGA:   5    -0.124109632690E+03   -0.13283E-02   -0.13297E-02  8040   0.306E-01 0.123E-03
CGA:   6    -0.124111156950E+03   -0.15243E-02   -0.15312E-02  8040   0.838E-02 0.251E-03
CGA:   7    -0.124111467882E+03   -0.31093E-03   -0.31283E-03  8040   0.316E-02 0.490E-04
CGA:   8    -0.124111901576E+03   -0.43369E-03   -0.43296E-03  8040   0.528E-02 0.137E-04
CGA:   9    -0.124112052677E+03   -0.15110E-03   -0.15124E-03  8040   0.754E-03 0.381E-05
CGA:  10    -0.124112177815E+03   -0.12514E-03   -0.12337E-03  8040   0.250E-02 0.214E-04
CGA:  11    -0.124112273027E+03   -0.95212E-04   -0.95766E-04  8040   0.416E-03 0.176E-04
CGA:  12    -0.124112298751E+03   -0.25725E-04   -0.25707E-04  8040   0.488E-03-0.653E-06
CGA:  13    -0.124112351115E+03   -0.52363E-04   -0.52655E-04  8040   0.554E-03-0.102E-04
CGA:  14    -0.124112366396E+03   -0.15281E-04   -0.15138E-04  8040   0.789E-04-0.252E-05
CGA:  15    -0.124112378686E+03   -0.12290E-04   -0.12199E-04  8040   0.197E-03 0.128E-05
CGA:  16    -0.124112386074E+03   -0.73883E-05   -0.75213E-05  8040   0.404E-04 0.299E-05
CGA:  17    -0.124112387741E+03   -0.16672E-05   -0.18030E-05  8040   0.268E-04 0.371E-05
CGA:  18    -0.124112390305E+03   -0.25641E-05   -0.25013E-05  8040   0.186E-04 0.942E-05
CGA:  19    -0.124112391214E+03   -0.90898E-06   -0.10184E-05  8040   0.120E-04 0.284E-05
CGA:  20    -0.124112392704E+03   -0.14899E-05   -0.14304E-05  8040   0.995E-05 0.229E-05
CGA:  21    -0.124112393244E+03   -0.53979E-06   -0.51786E-06  8040   0.827E-05-0.631E-06
CGA:  22    -0.124112394012E+03   -0.76837E-06   -0.10431E-05  8040   0.215E-04-0.477E-05
   7 F= -.12411239E+03 E0= -.12411210E+03  d E =-.100443E-02
       N       E                     dE             d eps       ncg     rms          ort
SDA:   1    -0.124111239001E+03    0.11542E-02    0.00000E+00  8040   0.324E-02 0.000E+00
CGA:   2    -0.124111800104E+03   -0.56110E-03   -0.57210E-03  8040   0.106E-01-0.110E-03
CGA:   3    -0.124112082983E+03   -0.28288E-03   -0.28109E-03  8040   0.150E-02-0.438E-04
CGA:   4    -0.124112310218E+03   -0.22723E-03   -0.21988E-03  8040   0.145E-02 0.108E-03
CGA:   5    -0.124112348161E+03   -0.37943E-04   -0.38519E-04  8040   0.320E-03 0.112E-04
CGA:   6    -0.124112385340E+03   -0.37180E-04   -0.38492E-04  8040   0.644E-03-0.330E-04
CGA:   7    -0.124112403738E+03   -0.18397E-04   -0.17398E-04  8040   0.774E-04-0.193E-04
CGA:   8    -0.124112408899E+03   -0.51615E-05   -0.51421E-05  8040   0.111E-03-0.183E-05
CGA:   9    -0.124112417041E+03   -0.81422E-05   -0.81426E-05  8040   0.882E-04 0.180E-06
CGA:  10    -0.124112419264E+03   -0.22228E-05   -0.21957E-05  8040   0.142E-04-0.507E-06
CGA:  11    -0.124112421522E+03   -0.22584E-05   -0.42812E-06  8040   0.779E-04-0.122E-04
CGA:  12    -0.124112423097E+03   -0.15746E-05   -0.17342E-05  8040   0.202E-04 0.140E-05
CGA:  13    -0.124112424802E+03   -0.17048E-05   -0.19380E-05  8040   0.583E-05 0.614E-05
CGA:  14    -0.124112425048E+03   -0.24669E-06   -0.29804E-06  8040   0.439E-05 0.571E-06
   8 F= -.12411243E+03 E0= -.12411213E+03  d E =-.103547E-02
