 vasp.5.4.4.18Apr17-6-g9f103f2a35 (build Nov 08 2022 17:27:33) complex          
  
 executed on             LinuxIFC date 2022.11.22  21:39:29
 running on   16 total cores
 distrk:  each k-point on   16 cores,    1 groups
 distr:  one band on NCORES_PER_BAND=   4 cores,    4 groups


--------------------------------------------------------------------------------------------------------


 INCAR:
 POTCAR:    PAW_PBE Mn_pv 02Aug2007               
 POTCAR:    PAW_PBE O 08Apr2002                   
 POTCAR:    PAW_PBE Mn_pv 02Aug2007               
   VRHFIN =Mn: 3p4s3d                                                           
   LEXCH  = PE                                                                  
   EATOM  =  2025.2664 eV,  148.8529 Ry                                         
                                                                                
   TITEL  = PAW_PBE Mn_pv 02Aug2007                                             
   LULTRA =        F    use ultrasoft PP ?                                      
   IUNSCR =        1    unscreen: 0-lin 1-nonlin 2-no                           
   RPACOR =    2.080    partial core radius                                     
   POMASS =   54.938; ZVAL   =   13.000    mass and valenz                      
   RCORE  =    2.300    outmost cutoff radius                                   
   RWIGS  =    2.500; RWIGS  =    1.323    wigner-seitz radius (au A)           
   ENMAX  =  269.864; ENMIN  =  202.398 eV                                      
   ICORE  =        3    local potential                                         
   LCOR   =        T    correct aug charges                                     
   LPAW   =        T    paw PP                                                  
   EAUG   =  569.085                                                            
   DEXC   =    0.000                                                            
   RMAX   =    2.343    core radius for proj-oper                               
   RAUG   =    1.300    factor for augmentation sphere                          
   RDEP   =    2.338    radius for radial grids                                 
   RDEPT  =    1.798    core radius for aug-charge                              
                                                                                
   Atomic configuration                                                         
    8 entries                                                                   
     n  l   j            E        occ.                                          
     1  0  0.50     -6424.8287   2.0000                                         
     2  0  0.50      -739.1154   2.0000                                         
     2  1  1.50      -625.3949   6.0000                                         
     3  0  0.50       -81.6100   2.0000                                         
     3  1  1.50       -50.4667   6.0000                                         
     3  2  2.50        -3.3745   6.0000                                         
     4  0  0.50        -4.1331   1.0000                                         
     4  3  2.50        -1.3606   0.0000                                         
   Description                                                                  
     l       E           TYP  RCUT    TYP  RCUT                                 
     1    -50.4666628     23  2.000                                             
     1     -1.3605826     23  2.000                                             
     2     -3.3744729     23  2.300                                             
     2     -4.7350555     23  2.300                                             
     0     -4.1331431     23  2.300                                             
     0      7.6656591     23  2.300                                             
     3      9.5240782     23  2.300                                             
  local pseudopotential read in
  partial core-charges read in
  partial kinetic energy density read in
  atomic valenz-charges read in
  non local Contribution for L=           1  read in
    real space projection operators read in
  non local Contribution for L=           1  read in
    real space projection operators read in
  non local Contribution for L=           2  read in
    real space projection operators read in
  non local Contribution for L=           2  read in
    real space projection operators read in
  non local Contribution for L=           0  read in
    real space projection operators read in
  non local Contribution for L=           0  read in
    real space projection operators read in
    PAW grid and wavefunctions read in
 
   number of l-projection  operators is LMAX  =           6
   number of lm-projection operators is LMMAX =          18
 
 POTCAR:    PAW_PBE O 08Apr2002                   
   VRHFIN =O: s2p4                                                              
   LEXCH  = PE                                                                  
   EATOM  =   432.3788 eV,   31.7789 Ry                                         
                                                                                
   TITEL  = PAW_PBE O 08Apr2002                                                 
   LULTRA =        F    use ultrasoft PP ?                                      
   IUNSCR =        1    unscreen: 0-lin 1-nonlin 2-no                           
   RPACOR =    1.200    partial core radius                                     
   POMASS =   16.000; ZVAL   =    6.000    mass and valenz                      
   RCORE  =    1.520    outmost cutoff radius                                   
   RWIGS  =    1.550; RWIGS  =    0.820    wigner-seitz radius (au A)           
   ENMAX  =  400.000; ENMIN  =  300.000 eV                                      
   ICORE  =        2    local potential                                         
   LCOR   =        T    correct aug charges                                     
   LPAW   =        T    paw PP                                                  
   EAUG   =  605.392                                                            
   DEXC   =    0.000                                                            
   RMAX   =    1.553    core radius for proj-oper                               
   RAUG   =    1.300    factor for augmentation sphere                          
   RDEP   =    1.550    radius for radial grids                                 
   RDEPT  =    1.329    core radius for aug-charge                              
                                                                                
   Atomic configuration                                                         
    4 entries                                                                   
     n  l   j            E        occ.                                          
     1  0  0.50      -514.6923   2.0000                                         
     2  0  0.50       -23.9615   2.0000                                         
     2  1  0.50        -9.0305   4.0000                                         
     3  2  1.50        -9.5241   0.0000                                         
   Description                                                                  
     l       E           TYP  RCUT    TYP  RCUT                                 
     0    -23.9615318     23  1.200                                             
     0     -9.5240782     23  1.200                                             
     1     -9.0304911     23  1.520                                             
     1      8.1634956     23  1.520                                             
     2     -9.5240782      7  1.500                                             
  local pseudopotential read in
  partial core-charges read in
  partial kinetic energy density read in
  kinetic energy density of atom read in
  atomic valenz-charges read in
  non local Contribution for L=           0  read in
    real space projection operators read in
  non local Contribution for L=           0  read in
    real space projection operators read in
  non local Contribution for L=           1  read in
    real space projection operators read in
  non local Contribution for L=           1  read in
    real space projection operators read in
    PAW grid and wavefunctions read in
 
   number of l-projection  operators is LMAX  =           4
   number of lm-projection operators is LMMAX =           8
 
 Optimization of the real space projectors (new method)

 maximal supplied QI-value         = 16.25
 optimisation between [QCUT,QGAM] = [ 11.54, 23.24] = [ 37.28,151.24] Ry 
 Optimized for a Real-space Cutoff    1.45 Angstroem

   l    n(q)    QCUT    max X(q) W(low)/X(q) W(high)/X(q)  e(spline) 
   1     10    11.539     3.658    0.56E-04    0.12E-03    0.13E-06
   1     10    11.539     5.612    0.11E-03    0.23E-03    0.24E-06
   2      9    11.539    55.373    0.45E-04    0.92E-04    0.22E-06
   2      9    11.539    50.863    0.47E-04    0.95E-04    0.22E-06
   0     10    11.539    79.536    0.46E-04    0.27E-04    0.11E-06
   0     10    11.539    38.668    0.38E-04    0.25E-04    0.10E-06
 Optimization of the real space projectors (new method)

 maximal supplied QI-value         = 24.76
 optimisation between [QCUT,QGAM] = [ 11.64, 23.27] = [ 37.91,151.63] Ry 
 Optimized for a Real-space Cutoff    1.14 Angstroem

   l    n(q)    QCUT    max X(q) W(low)/X(q) W(high)/X(q)  e(spline) 
   0      8    11.635    20.381    0.10E-03    0.33E-03    0.24E-06
   0      8    11.635    15.268    0.11E-03    0.35E-03    0.26E-06
   1      7    11.635     5.964    0.24E-03    0.31E-03    0.30E-06
   1      7    11.635     5.382    0.22E-03    0.25E-03    0.26E-06
  PAW_PBE Mn_pv 02Aug2007               :
 energy of atom  1       EATOM=-2025.2664
 kinetic energy error for atom=    0.0058 (will be added to EATOM!!)
  PAW_PBE O 08Apr2002                   :
 energy of atom  2       EATOM= -432.3788
 kinetic energy error for atom=    0.0208 (will be added to EATOM!!)
 
 
 POSCAR: Mn4 O8                                  
  positions in direct lattice
  velocities in cartesian coordinates

 METAGGA = R2SCA    LMAXTAU =  6    LMIXTAU =  T

 exchange correlation table for  LEXCH =        8
   RHO(1)=    0.500       N(1)  =     2000
   RHO(2)=  100.500       N(2)  =     4000

 VTST: version 3.2, (02/03/18)

 CHAIN: initializing optimizer
 
 OPT: Using VASP Conjugate-Gradient optimizer
 CHAIN: Read ICHAIN            0
 
 POSCAR: Mn4 O8                                  
  positions in direct lattice
  velocities in cartesian coordinates
 


--------------------------------------------------------------------------------------------------------


 ion  position               nearest neighbor table
   1  0.250  0.051  0.858-  10 1.80  12 1.88  12 1.88   6 1.89   6 1.89   7 1.93   2 2.97   2 2.97

   2  0.750  0.949  0.142-  11 1.80   9 1.88   9 1.88   7 1.89   7 1.89   6 1.93   1 2.97   1 2.97

   3  0.750  0.551  0.642-  12 1.80  10 1.88  10 1.88   5 1.89   5 1.89   8 1.93   4 2.97   4 2.97

   4  0.250  0.449  0.358-   9 1.80  11 1.88  11 1.88   8 1.89   8 1.89   5 1.93   3 2.97   3 2.97

   5  0.250  0.702  0.522-   3 1.89   3 1.89   4 1.93
   6  0.750  0.202  0.978-   1 1.89   1 1.89   2 1.93
   7  0.250  0.798  0.022-   2 1.89   2 1.89   1 1.93
   8  0.750  0.298  0.478-   4 1.89   4 1.89   3 1.93
   9  0.250  0.160  0.233-   4 1.80   2 1.88   2 1.88
  10  0.250  0.340  0.733-   1 1.80   3 1.88   3 1.88
  11  0.750  0.660  0.267-   2 1.80   4 1.88   4 1.88
  12  0.750  0.840  0.767-   3 1.80   1 1.88   1 1.88
 

IMPORTANT INFORMATION: All symmetrisations will be switched off!
NOSYMM: (Re-)initialisation of all symmetry stuff for point group C_1.

 
 

Automatic generation of k-mesh.
 generate k-points for:   11    6    4
Space group operators:
 irot       det(A)        alpha          n_x          n_y          n_z        tau_x        tau_y        tau_z
    1     1.000000     0.000000     1.000000     0.000000     0.000000     0.000000     0.000000     0.000000
 
 Subroutine IBZKPT returns following result:
 ===========================================
 
 Found    134 irreducible k-points:
 
 Following reciprocal coordinates:
            Coordinates               Weight
  0.000000  0.000000  0.000000      1.000000
  0.090909 -0.000000  0.000000      2.000000
  0.181818 -0.000000  0.000000      2.000000
  0.272727 -0.000000 -0.000000      2.000000
  0.363636 -0.000000  0.000000      2.000000
  0.454545 -0.000000  0.000000      2.000000
  0.000000  0.166667 -0.000000      2.000000
  0.090909  0.166667  0.000000      2.000000
  0.181818  0.166667 -0.000000      2.000000
  0.272727  0.166667  0.000000      2.000000
  0.363636  0.166667 -0.000000      2.000000
  0.454545  0.166667 -0.000000      2.000000
 -0.454545  0.166667  0.000000      2.000000
 -0.363636  0.166667 -0.000000      2.000000
 -0.272727  0.166667 -0.000000      2.000000
 -0.181818  0.166667  0.000000      2.000000
 -0.090909  0.166667 -0.000000      2.000000
  0.000000  0.333333 -0.000000      2.000000
  0.090909  0.333333 -0.000000      2.000000
  0.181818  0.333333  0.000000      2.000000
  0.272727  0.333333 -0.000000      2.000000
  0.363636  0.333333 -0.000000      2.000000
  0.454545  0.333333 -0.000000      2.000000
 -0.454545  0.333333  0.000000      2.000000
 -0.363636  0.333333  0.000000      2.000000
 -0.272727  0.333333 -0.000000      2.000000
 -0.181818  0.333333 -0.000000      2.000000
 -0.090909  0.333333 -0.000000      2.000000
 -0.000000  0.500000  0.000000      1.000000
  0.090909  0.500000  0.000000      2.000000
  0.181818  0.500000 -0.000000      2.000000
  0.272727  0.500000  0.000000      2.000000
  0.363636  0.500000  0.000000      2.000000
  0.454545  0.500000 -0.000000      2.000000
  0.000000 -0.000000  0.250000      2.000000
  0.090909  0.000000  0.250000      2.000000
  0.181818  0.000000  0.250000      2.000000
  0.272727  0.000000  0.250000      2.000000
  0.363636 -0.000000  0.250000      2.000000
  0.454545  0.000000  0.250000      2.000000
 -0.454545 -0.000000  0.250000      2.000000
 -0.363636 -0.000000  0.250000      2.000000
 -0.272727 -0.000000  0.250000      2.000000
 -0.181818  0.000000  0.250000      2.000000
 -0.090909 -0.000000  0.250000      2.000000
  0.000000  0.166667  0.250000      2.000000
  0.090909  0.166667  0.250000      2.000000
  0.181818  0.166667  0.250000      2.000000
  0.272727  0.166667  0.250000      2.000000
  0.363636  0.166667  0.250000      2.000000
  0.454545  0.166667  0.250000      2.000000
 -0.454545  0.166667  0.250000      2.000000
 -0.363636  0.166667  0.250000      2.000000
 -0.272727  0.166667  0.250000      2.000000
 -0.181818  0.166667  0.250000      2.000000
 -0.090909  0.166667  0.250000      2.000000
  0.000000  0.333333  0.250000      2.000000
  0.090909  0.333333  0.250000      2.000000
  0.181818  0.333333  0.250000      2.000000
  0.272727  0.333333  0.250000      2.000000
  0.363636  0.333333  0.250000      2.000000
  0.454545  0.333333  0.250000      2.000000
 -0.454545  0.333333  0.250000      2.000000
 -0.363636  0.333333  0.250000      2.000000
 -0.272727  0.333333  0.250000      2.000000
 -0.181818  0.333333  0.250000      2.000000
 -0.090909  0.333333  0.250000      2.000000
 -0.000000  0.500000  0.250000      2.000000
  0.090909  0.500000  0.250000      2.000000
  0.181818  0.500000  0.250000      2.000000
  0.272727  0.500000  0.250000      2.000000
  0.363636  0.500000  0.250000      2.000000
  0.454545  0.500000  0.250000      2.000000
 -0.454545  0.500000  0.250000      2.000000
 -0.363636  0.500000  0.250000      2.000000
 -0.272727  0.500000  0.250000      2.000000
 -0.181818  0.500000  0.250000      2.000000
 -0.090909  0.500000  0.250000      2.000000
  0.000000 -0.333333  0.250000      2.000000
  0.090909 -0.333333  0.250000      2.000000
  0.181818 -0.333333  0.250000      2.000000
  0.272727 -0.333333  0.250000      2.000000
  0.363636 -0.333333  0.250000      2.000000
  0.454545 -0.333333  0.250000      2.000000
 -0.454545 -0.333333  0.250000      2.000000
 -0.363636 -0.333333  0.250000      2.000000
 -0.272727 -0.333333  0.250000      2.000000
 -0.181818 -0.333333  0.250000      2.000000
 -0.090909 -0.333333  0.250000      2.000000
  0.000000 -0.166667  0.250000      2.000000
  0.090909 -0.166667  0.250000      2.000000
  0.181818 -0.166667  0.250000      2.000000
  0.272727 -0.166667  0.250000      2.000000
  0.363636 -0.166667  0.250000      2.000000
  0.454545 -0.166667  0.250000      2.000000
 -0.454545 -0.166667  0.250000      2.000000
 -0.363636 -0.166667  0.250000      2.000000
 -0.272727 -0.166667  0.250000      2.000000
 -0.181818 -0.166667  0.250000      2.000000
 -0.090909 -0.166667  0.250000      2.000000
  0.000000 -0.000000  0.500000      1.000000
  0.090909 -0.000000  0.500000      2.000000
  0.181818  0.000000  0.500000      2.000000
  0.272727 -0.000000  0.500000      2.000000
  0.363636  0.000000  0.500000      2.000000
  0.454545 -0.000000  0.500000      2.000000
 -0.000000  0.166667  0.500000      2.000000
  0.090909  0.166667  0.500000      2.000000
  0.181818  0.166667  0.500000      2.000000
  0.272727  0.166667  0.500000      2.000000
  0.363636  0.166667  0.500000      2.000000
  0.454545  0.166667  0.500000      2.000000
 -0.454545  0.166667  0.500000      2.000000
 -0.363636  0.166667  0.500000      2.000000
 -0.272727  0.166667  0.500000      2.000000
 -0.181818  0.166667  0.500000      2.000000
 -0.090909  0.166667  0.500000      2.000000
  0.000000  0.333333  0.500000      2.000000
  0.090909  0.333333  0.500000      2.000000
  0.181818  0.333333  0.500000      2.000000
  0.272727  0.333333  0.500000      2.000000
  0.363636  0.333333  0.500000      2.000000
  0.454545  0.333333  0.500000      2.000000
 -0.454545  0.333333  0.500000      2.000000
 -0.363636  0.333333  0.500000      2.000000
 -0.272727  0.333333  0.500000      2.000000
 -0.181818  0.333333  0.500000      2.000000
 -0.090909  0.333333  0.500000      2.000000
 -0.000000  0.500000  0.500000      1.000000
  0.090909  0.500000  0.500000      2.000000
  0.181818  0.500000  0.500000      2.000000
  0.272727  0.500000  0.500000      2.000000
  0.363636  0.500000  0.500000      2.000000
  0.454545  0.500000  0.500000      2.000000
 
 Following cartesian coordinates:
            Coordinates               Weight
  0.000000  0.000000  0.000000      1.000000
  0.033812 -0.000000  0.000000      2.000000
  0.067623 -0.000000  0.000000      2.000000
  0.101435 -0.000000  0.000000      2.000000
  0.135246 -0.000000  0.000000      2.000000
  0.169058 -0.000001  0.000000      2.000000
 -0.000000  0.034573 -0.000005      2.000000
  0.033811  0.034573 -0.000005      2.000000
  0.067623  0.034573 -0.000005      2.000000
  0.101435  0.034573 -0.000005      2.000000
  0.135246  0.034573 -0.000005      2.000000
  0.169058  0.034572 -0.000005      2.000000
 -0.169058  0.034574 -0.000005      2.000000
 -0.135246  0.034573 -0.000005      2.000000
 -0.101435  0.034573 -0.000005      2.000000
 -0.067623  0.034573 -0.000005      2.000000
 -0.033812  0.034573 -0.000005      2.000000
 -0.000000  0.069146 -0.000011      2.000000
  0.033811  0.069146 -0.000011      2.000000
  0.067623  0.069146 -0.000011      2.000000
  0.101434  0.069146 -0.000011      2.000000
  0.135246  0.069146 -0.000011      2.000000
  0.169058  0.069145 -0.000011      2.000000
 -0.169058  0.069147 -0.000011      2.000000
 -0.135247  0.069146 -0.000011      2.000000
 -0.101435  0.069146 -0.000011      2.000000
 -0.067623  0.069146 -0.000011      2.000000
 -0.033812  0.069146 -0.000011      2.000000
 -0.000000  0.103719 -0.000016      1.000000
  0.033811  0.103719 -0.000016      2.000000
  0.067623  0.103719 -0.000016      2.000000
  0.101434  0.103719 -0.000016      2.000000
  0.135246  0.103719 -0.000016      2.000000
  0.169057  0.103718 -0.000016      2.000000
 -0.000000 -0.000004  0.027282      2.000000
  0.033812 -0.000004  0.027282      2.000000
  0.067623 -0.000004  0.027282      2.000000
  0.101435 -0.000004  0.027282      2.000000
  0.135246 -0.000004  0.027282      2.000000
  0.169058 -0.000004  0.027282      2.000000
 -0.169058 -0.000003  0.027282      2.000000
 -0.135246 -0.000003  0.027282      2.000000
 -0.101435 -0.000003  0.027282      2.000000
 -0.067623 -0.000003  0.027282      2.000000
 -0.033812 -0.000004  0.027282      2.000000
 -0.000000  0.034569  0.027277      2.000000
  0.033811  0.034569  0.027277      2.000000
  0.067623  0.034569  0.027277      2.000000
  0.101435  0.034569  0.027277      2.000000
  0.135246  0.034569  0.027277      2.000000
  0.169058  0.034569  0.027277      2.000000
 -0.169058  0.034570  0.027277      2.000000
 -0.135246  0.034570  0.027277      2.000000
 -0.101435  0.034570  0.027277      2.000000
 -0.067623  0.034570  0.027277      2.000000
 -0.033812  0.034569  0.027277      2.000000
 -0.000000  0.069142  0.027271      2.000000
  0.033811  0.069142  0.027271      2.000000
  0.067623  0.069142  0.027271      2.000000
  0.101434  0.069142  0.027271      2.000000
  0.135246  0.069142  0.027271      2.000000
  0.169058  0.069142  0.027271      2.000000
 -0.169058  0.069143  0.027271      2.000000
 -0.135247  0.069143  0.027271      2.000000
 -0.101435  0.069143  0.027271      2.000000
 -0.067623  0.069143  0.027271      2.000000
 -0.033812  0.069142  0.027271      2.000000
 -0.000000  0.103715  0.027266      2.000000
  0.033811  0.103715  0.027266      2.000000
  0.067623  0.103715  0.027266      2.000000
  0.101434  0.103715  0.027266      2.000000
  0.135246  0.103715  0.027266      2.000000
  0.169057  0.103715  0.027266      2.000000
 -0.169058  0.103716  0.027266      2.000000
 -0.135247  0.103716  0.027266      2.000000
 -0.101435  0.103716  0.027266      2.000000
 -0.067624  0.103716  0.027266      2.000000
 -0.033812  0.103715  0.027266      2.000000
  0.000000 -0.069150  0.027293      2.000000
  0.033812 -0.069150  0.027293      2.000000
  0.067623 -0.069150  0.027293      2.000000
  0.101435 -0.069150  0.027293      2.000000
  0.135247 -0.069150  0.027293      2.000000
  0.169058 -0.069150  0.027293      2.000000
 -0.169058 -0.069149  0.027293      2.000000
 -0.135246 -0.069149  0.027293      2.000000
 -0.101435 -0.069149  0.027293      2.000000
 -0.067623 -0.069149  0.027293      2.000000
 -0.033811 -0.069150  0.027293      2.000000
  0.000000 -0.034577  0.027287      2.000000
  0.033812 -0.034577  0.027287      2.000000
  0.067623 -0.034577  0.027287      2.000000
  0.101435 -0.034577  0.027287      2.000000
  0.135246 -0.034577  0.027287      2.000000
  0.169058 -0.034577  0.027287      2.000000
 -0.169058 -0.034576  0.027287      2.000000
 -0.135246 -0.034576  0.027287      2.000000
 -0.101435 -0.034576  0.027287      2.000000
 -0.067623 -0.034576  0.027287      2.000000
 -0.033811 -0.034577  0.027287      2.000000
 -0.000000 -0.000007  0.054564      1.000000
  0.033812 -0.000007  0.054564      2.000000
  0.067623 -0.000008  0.054564      2.000000
  0.101435 -0.000008  0.054564      2.000000
  0.135246 -0.000008  0.054564      2.000000
  0.169058 -0.000008  0.054564      2.000000
 -0.000000  0.034566  0.054559      2.000000
  0.033811  0.034566  0.054559      2.000000
  0.067623  0.034565  0.054559      2.000000
  0.101435  0.034565  0.054559      2.000000
  0.135246  0.034565  0.054559      2.000000
  0.169058  0.034565  0.054559      2.000000
 -0.169058  0.034566  0.054559      2.000000
 -0.135246  0.034566  0.054559      2.000000
 -0.101435  0.034566  0.054559      2.000000
 -0.067623  0.034566  0.054559      2.000000
 -0.033812  0.034566  0.054559      2.000000
 -0.000000  0.069139  0.054553      2.000000
  0.033811  0.069139  0.054553      2.000000
  0.067623  0.069138  0.054553      2.000000
  0.101434  0.069138  0.054553      2.000000
  0.135246  0.069138  0.054553      2.000000
  0.169058  0.069138  0.054553      2.000000
 -0.169058  0.069139  0.054553      2.000000
 -0.135247  0.069139  0.054553      2.000000
 -0.101435  0.069139  0.054553      2.000000
 -0.067623  0.069139  0.054553      2.000000
 -0.033812  0.069139  0.054553      2.000000
 -0.000000  0.103712  0.054548      1.000000
  0.033811  0.103712  0.054548      2.000000
  0.067623  0.103711  0.054548      2.000000
  0.101434  0.103711  0.054548      2.000000
  0.135246  0.103711  0.054548      2.000000
  0.169057  0.103711  0.054548      2.000000
 


--------------------------------------------------------------------------------------------------------




 Dimension of arrays:
   k-points           NKPTS =    134   k-points in BZ     NKDIM =    134   number of bands    NBANDS=     60
   number of dos      NEDOS =    301   number of ions     NIONS =     12
   non local maximal  LDIM  =      6   non local SUM 2l+1 LMDIM =     18
   total plane-waves  NPLWV =  50400
   max r-space proj   IRMAX =   5421   max aug-charges    IRDMAX=  13074
   dimension x,y,z NGX =    20 NGY =   36 NGZ =   70
   dimension x,y,z NGXF=    40 NGYF=   72 NGZF=  140
   support grid    NGXF=    40 NGYF=   72 NGZF=  140
   ions per type =               4   8
   NGX,Y,Z   is equivalent  to a cutoff of  12.37, 12.41, 12.70 a.u.
   NGXF,Y,Z  is equivalent  to a cutoff of  24.73, 24.83, 25.40 a.u.

 SYSTEM =  unknown system                          
 POSCAR =  Mn4 O8                                  

 Startparameter for this run:
   NWRITE =      2    write-flag & timer
   PREC   = accura    normal or accurate (medium, high low for compatibility)
   ISTART =      1    job   : 0-new  1-cont  2-samecut
   ICHARG =      0    charge: 1-file 2-atom 10-const
   ISPIN  =      1    spin polarized calculation?
   LNONCOLLINEAR =      F non collinear calculations
   LSORBIT =      F    spin-orbit coupling
   INIWAV =      1    electr: 0-lowe 1-rand  2-diag
   LASPH  =      T    aspherical Exc in radial PAW
   METAGGA=      F    non-selfconsistent MetaGGA calc.

 Electronic Relaxation 1
   ENCUT  =  520.0 eV  38.22 Ry    6.18 a.u.   5.00  8.96 17.04*2*pi/ulx,y,z
   ENINI  =  520.0     initial cutoff
   ENAUG  = 1040.0 eV  augmentation charge cutoff
   NELM   =    200;   NELMIN=  2; NELMDL=  0     # of ELM steps 
   EDIFF  = 0.1E-05   stopping-criterion for ELM
   LREAL  =      T    real-space projection
   NLSPLINE    = F    spline interpolate recip. space projectors
   LCOMPAT=      F    compatible to vasp.4.4
   GGA_COMPAT  = T    GGA compatible to vasp.4.4-vasp.4.6
   LMAXPAW     = -100 max onsite density
   LMAXMIX     =    4 max onsite mixed and CHGCAR
   VOSKOWN=      0    Vosko Wilk Nusair interpolation
   ROPT   =   -0.00025  -0.00025
 Ionic relaxation
   EDIFFG = -.3E-01   stopping-criterion for IOM
   NSW    =    199    number of steps for IOM
   NBLOCK =      1;   KBLOCK =    199    inner block; outer block 
   IBRION =      2    ionic relax: 0-MD 1-quasi-New 2-CG
   NFREE  =      1    steps in history (QN), initial steepest desc. (CG)
   ISIF   =      3    stress and relaxation
   IWAVPR =     11    prediction:  0-non 1-charg 2-wave 3-comb
   ISYM   =      0    0-nonsym 1-usesym 2-fastsym
   LCORR  =      T    Harris-Foulkes like correction to forces

   POTIM  = 0.5000    time-step for ionic-motion
   TEIN   =    0.0    initial temperature
   TEBEG  =    0.0;   TEEND  =   0.0 temperature during run
   SMASS  =  -3.00    Nose mass-parameter (am)
   estimated Nose-frequenzy (Omega)   =  0.10E-29 period in steps =****** mass=  -0.165E-27a.u.
   SCALEE = 1.0000    scale energy and forces
   NPACO  =    256;   APACO  = 16.0  distance and # of slots for P.C.
   PSTRESS=    0.0 pullay stress

  Mass of Ions in am
   POMASS =  54.94 16.00
  Ionic Valenz
   ZVAL   =  13.00  6.00
  Atomic Wigner-Seitz radii
   RWIGS  =  -1.00 -1.00
  virtual crystal weights 
   VCA    =   1.00  1.00
   NELECT =     100.0000    total number of electrons
   NUPDOWN=      -1.0000    fix difference up-down

 DOS related values:
   EMIN   =  10.00;   EMAX   =-10.00  energy-range for DOS
   EFERMI =   0.00
   ISMEAR =     0;   SIGMA  =   0.01  broadening in eV -4-tet -1-fermi 0-gaus

 Electronic relaxation 2 (details)
   IALGO  =     58    algorithm
   LDIAG  =      T    sub-space diagonalisation (order eigenvalues)
   LSUBROT=      F    optimize rotation matrix (better conditioning)
   TURBO    =      0    0=normal 1=particle mesh
   IRESTART =      0    0=no restart 2=restart with 2 vectors
   NREBOOT  =      0    no. of reboots
   NMIN     =      0    reboot dimension
   EREF     =   0.00    reference energy to select bands
   IMIX   =      4    mixing-type and parameters
     AMIX     =   0.40;   BMIX     =  1.00
     AMIX_MAG =   1.60;   BMIX_MAG =  1.00
     AMIN     =   0.10
     WC   =   100.;   INIMIX=   1;  MIXPRE=   1;  MAXMIX= -45

 Intra band minimization:
   WEIMIN = 0.0010     energy-eigenvalue tresh-hold
   EBREAK =  0.42E-08  absolut break condition
   DEPER  =   0.30     relativ break condition  

   TIME   =   0.40     timestep for ELM

  volume/ion in A,a.u.               =       9.90        66.79
  Fermi-wavevector in a.u.,A,eV,Ry     =   1.545855  2.921242 32.513392  2.389667
  Thomas-Fermi vector in A             =   2.651174
 
 Write flags
   LWAVE        =      T    write WAVECAR
   LDOWNSAMPLE  =      F    k-point downsampling of WAVECAR
   LCHARG       =      T    write CHGCAR
   LVTOT        =      T    write LOCPOT, total local potential
   LVHAR        =      F    write LOCPOT, Hartree potential only
   LELF         =      T    write electronic localiz. function (ELF)
   LORBIT       =     11    0 simple, 1 ext, 2 COOP (PROOUT), +10 PAW based schemes


 Dipole corrections
   LMONO  =      F    monopole corrections only (constant potential shift)
   LDIPOL =      F    correct potential (dipole corrections)
   IDIPOL =      0    1-x, 2-y, 3-z, 4-all directions 
   EPSILON=  1.0000000 bulk dielectric constant

 Exchange correlation treatment:
   GGA     =    PE    GGA type
   LEXCH   =     8    internal setting for exchange type
   VOSKOWN=      0    Vosko Wilk Nusair interpolation
   LHFCALC =     F    Hartree Fock is set to
   LHFONE  =     F    Hartree Fock one center treatment
   AEXX    =    0.0000 exact exchange contribution

 Linear response parameters
   LEPSILON=     F    determine dielectric tensor
   LRPA    =     F    only Hartree local field effects (RPA)
   LNABLA  =     F    use nabla operator in PAW spheres
   LVEL    =     F    velocity operator in full k-point grid
   LINTERFAST=   F  fast interpolation
   KINTER  =     0    interpolate to denser k-point grid
   CSHIFT  =0.1000    complex shift for real part using Kramers Kronig
   OMEGAMAX=  -1.0    maximum frequency
   DEG_THRESHOLD= 0.2000000E-02 threshold for treating states as degnerate
   RTIME   =   -0.100 relaxation time in fs
  (WPLASMAI=    0.000 imaginary part of plasma frequency in eV, 0.658/RTIME)
   DFIELD  = 0.0000000 0.0000000 0.0000000 field for delta impulse in time
 
 Orbital magnetization related:
   ORBITALMAG=     F  switch on orbital magnetization
   LCHIMAG   =     F  perturbation theory with respect to B field
   DQ        =  0.001000  dq finite difference perturbation B field
   LLRAUG    =     F  two centre corrections for induced B field



--------------------------------------------------------------------------------------------------------


 conjugate gradient relaxation of ions
 charge density and potential will be updated during run
 non-spin polarized calculation
 Conjugate gradient for all bands (Freysoldt, et al. PRB 79, 241103 (2009))
 preconditioned conjugated gradient                                        
 perform sub-space diagonalisation
    before iterative eigenvector-optimisation
 modified Broyden-mixing scheme, WC =      100.0
 initial mixing is a Kerker type mixing with AMIX =  0.4000 and BMIX =      1.0000
 Hartree-type preconditioning will be used
 using additional bands           10
 real space projection scheme for non local part
 use partial core corrections
 no Harris-corrections to forces 
 use gradient corrections 
 use of overlap-Matrix (Vanderbilt PP)
 Gauss-broadening in eV      SIGMA  =   0.01


--------------------------------------------------------------------------------------------------------


  energy-cutoff  :      520.00
  volume of cell :      118.77
      direct lattice vectors                 reciprocal lattice vectors
     2.688697425  0.000009566  0.000002704     0.371927310 -0.000001222  0.000000088
     0.000015837  4.820718547  0.000648111    -0.000000738  0.207437960 -0.000032051
    -0.000002157  0.001415851  9.163570660    -0.000000110 -0.000014671  0.109127769

  length of vectors
     2.688697425  4.820718590  9.163570769     0.371927310  0.207437962  0.109127770


 
 old parameters found on file WAVECAR:
  energy-cutoff  :      520.00
  volume of cell :      118.77
      direct lattice vectors                 reciprocal lattice vectors
     2.688697425  0.000009566  0.000002704     0.371927310 -0.000001222  0.000000088
     0.000015837  4.820718547  0.000648111    -0.000000738  0.207437960 -0.000032051
    -0.000002157  0.001415851  9.163570660    -0.000000110 -0.000014671  0.109127769

  length of vectors

 
 k-points in units of 2pi/SCALE and weight: read from INCAR                         
   0.00000000  0.00000000  0.00000000       0.004
   0.03381157 -0.00000011  0.00000001       0.008
   0.06762315 -0.00000022  0.00000002       0.008
   0.10143472 -0.00000033  0.00000002       0.008
   0.13524629 -0.00000044  0.00000003       0.008
   0.16905787 -0.00000056  0.00000004       0.008
  -0.00000012  0.03457299 -0.00000534       0.008
   0.03381145  0.03457288 -0.00000533       0.008
   0.06762302  0.03457277 -0.00000533       0.008
   0.10143460  0.03457266 -0.00000532       0.008
   0.13524617  0.03457255 -0.00000531       0.008
   0.16905775  0.03457244 -0.00000530       0.008
  -0.16905799  0.03457355 -0.00000538       0.008
  -0.13524642  0.03457344 -0.00000537       0.008
  -0.10143484  0.03457333 -0.00000537       0.008
  -0.06762327  0.03457322 -0.00000536       0.008
  -0.03381170  0.03457310 -0.00000535       0.008
  -0.00000025  0.06914599 -0.00001068       0.008
   0.03381133  0.06914588 -0.00001068       0.008
   0.06762290  0.06914576 -0.00001067       0.008
   0.10143447  0.06914565 -0.00001066       0.008
   0.13524605  0.06914554 -0.00001065       0.008
   0.16905762  0.06914543 -0.00001064       0.008
  -0.16905811  0.06914654 -0.00001072       0.008
  -0.13524654  0.06914643 -0.00001072       0.008
  -0.10143497  0.06914632 -0.00001071       0.008
  -0.06762339  0.06914621 -0.00001070       0.008
  -0.03381182  0.06914610 -0.00001069       0.008
  -0.00000037  0.10371898 -0.00001603       0.004
   0.03381120  0.10371887 -0.00001602       0.008
   0.06762278  0.10371876 -0.00001601       0.008
   0.10143435  0.10371865 -0.00001600       0.008
   0.13524593  0.10371854 -0.00001599       0.008
   0.16905750  0.10371842 -0.00001599       0.008
  -0.00000003 -0.00000367  0.02728194       0.008
   0.03381155 -0.00000378  0.02728195       0.008
   0.06762312 -0.00000389  0.02728196       0.008
   0.10143469 -0.00000400  0.02728197       0.008
   0.13524627 -0.00000411  0.02728197       0.008
   0.16905784 -0.00000422  0.02728198       0.008
  -0.16905790 -0.00000311  0.02728190       0.008
  -0.13524632 -0.00000322  0.02728191       0.008
  -0.10143475 -0.00000333  0.02728192       0.008
  -0.06762317 -0.00000345  0.02728193       0.008
  -0.03381160 -0.00000356  0.02728193       0.008
  -0.00000015  0.03456933  0.02727660       0.008
   0.03381142  0.03456921  0.02727661       0.008
   0.06762300  0.03456910  0.02727662       0.008
   0.10143457  0.03456899  0.02727662       0.008
   0.13524614  0.03456888  0.02727663       0.008
   0.16905772  0.03456877  0.02727664       0.008
  -0.16905802  0.03456988  0.02727656       0.008
  -0.13524644  0.03456977  0.02727657       0.008
  -0.10143487  0.03456966  0.02727658       0.008
  -0.06762330  0.03456955  0.02727658       0.008
  -0.03381172  0.03456944  0.02727659       0.008
  -0.00000027  0.06914232  0.02727126       0.008
   0.03381130  0.06914221  0.02727127       0.008
   0.06762287  0.06914210  0.02727127       0.008
   0.10143445  0.06914199  0.02727128       0.008
   0.13524602  0.06914187  0.02727129       0.008
   0.16905759  0.06914176  0.02727130       0.008
  -0.16905814  0.06914287  0.02727122       0.008
  -0.13524657  0.06914276  0.02727123       0.008
  -0.10143499  0.06914265  0.02727123       0.008
  -0.06762342  0.06914254  0.02727124       0.008
  -0.03381185  0.06914243  0.02727125       0.008
  -0.00000040  0.10371531  0.02726592       0.008
   0.03381118  0.10371520  0.02726592       0.008
   0.06762275  0.10371509  0.02726593       0.008
   0.10143432  0.10371498  0.02726594       0.008
   0.13524590  0.10371487  0.02726595       0.008
   0.16905747  0.10371476  0.02726596       0.008
  -0.16905826  0.10371587  0.02726588       0.008
  -0.13524669  0.10371576  0.02726588       0.008
  -0.10143512  0.10371565  0.02726589       0.008
  -0.06762354  0.10371553  0.02726590       0.008
  -0.03381197  0.10371542  0.02726591       0.008
   0.00000022 -0.06914965  0.02729263       0.008
   0.03381179 -0.06914977  0.02729263       0.008
   0.06762337 -0.06914988  0.02729264       0.008
   0.10143494 -0.06914999  0.02729265       0.008
   0.13524651 -0.06915010  0.02729266       0.008
   0.16905809 -0.06915021  0.02729267       0.008
  -0.16905765 -0.06914910  0.02729259       0.008
  -0.13524608 -0.06914921  0.02729259       0.008
  -0.10143450 -0.06914932  0.02729260       0.008
  -0.06762293 -0.06914943  0.02729261       0.008
  -0.03381136 -0.06914954  0.02729262       0.008
   0.00000010 -0.03457666  0.02728728       0.008
   0.03381167 -0.03457677  0.02728729       0.008
   0.06762324 -0.03457688  0.02728730       0.008
   0.10143482 -0.03457699  0.02728731       0.008
   0.13524639 -0.03457711  0.02728732       0.008
   0.16905796 -0.03457722  0.02728732       0.008
  -0.16905777 -0.03457611  0.02728724       0.008
  -0.13524620 -0.03457622  0.02728725       0.008
  -0.10143463 -0.03457633  0.02728726       0.008
  -0.06762305 -0.03457644  0.02728727       0.008
  -0.03381148 -0.03457655  0.02728728       0.008
  -0.00000005 -0.00000734  0.05456388       0.004
   0.03381152 -0.00000745  0.05456389       0.008
   0.06762309 -0.00000756  0.05456390       0.008
   0.10143467 -0.00000767  0.05456391       0.008
   0.13524624 -0.00000778  0.05456392       0.008
   0.16905781 -0.00000789  0.05456392       0.008
  -0.00000018  0.03456566  0.05455854       0.008
   0.03381140  0.03456555  0.05455855       0.008
   0.06762297  0.03456544  0.05455856       0.008
   0.10143454  0.03456532  0.05455857       0.008
   0.13524612  0.03456521  0.05455857       0.008
   0.16905769  0.03456510  0.05455858       0.008
  -0.16905805  0.03456621  0.05455850       0.008
  -0.13524647  0.03456610  0.05455851       0.008
  -0.10143490  0.03456599  0.05455852       0.008
  -0.06762333  0.03456588  0.05455853       0.008
  -0.03381175  0.03456577  0.05455853       0.008
  -0.00000030  0.06913865  0.05455320       0.008
   0.03381127  0.06913854  0.05455321       0.008
   0.06762285  0.06913843  0.05455322       0.008
   0.10143442  0.06913832  0.05455322       0.008
   0.13524599  0.06913821  0.05455323       0.008
   0.16905757  0.06913810  0.05455324       0.008
  -0.16905817  0.06913921  0.05455316       0.008
  -0.13524660  0.06913910  0.05455317       0.008
  -0.10143502  0.06913898  0.05455318       0.008
  -0.06762345  0.06913887  0.05455318       0.008
  -0.03381187  0.06913876  0.05455319       0.008
  -0.00000042  0.10371164  0.05454786       0.004
   0.03381115  0.10371153  0.05454787       0.008
   0.06762272  0.10371142  0.05454787       0.008
   0.10143430  0.10371131  0.05454788       0.008
   0.13524587  0.10371120  0.05454789       0.008
   0.16905744  0.10371109  0.05454790       0.008
 
 k-points in reciprocal lattice and weights: read from INCAR                         
   0.00000000  0.00000000  0.00000000       0.004
   0.09090909 -0.00000000  0.00000000       0.008
   0.18181818 -0.00000000  0.00000000       0.008
   0.27272727 -0.00000000 -0.00000000       0.008
   0.36363636 -0.00000000  0.00000000       0.008
   0.45454545 -0.00000000  0.00000000       0.008
   0.00000000  0.16666667 -0.00000000       0.008
   0.09090909  0.16666667  0.00000000       0.008
   0.18181818  0.16666667 -0.00000000       0.008
   0.27272727  0.16666667  0.00000000       0.008
   0.36363636  0.16666667 -0.00000000       0.008
   0.45454545  0.16666667 -0.00000000       0.008
  -0.45454545  0.16666667  0.00000000       0.008
  -0.36363636  0.16666667 -0.00000000       0.008
  -0.27272727  0.16666667 -0.00000000       0.008
  -0.18181818  0.16666667  0.00000000       0.008
  -0.09090909  0.16666667 -0.00000000       0.008
   0.00000000  0.33333333 -0.00000000       0.008
   0.09090909  0.33333333 -0.00000000       0.008
   0.18181818  0.33333333  0.00000000       0.008
   0.27272727  0.33333333 -0.00000000       0.008
   0.36363636  0.33333333 -0.00000000       0.008
   0.45454545  0.33333333 -0.00000000       0.008
  -0.45454545  0.33333333  0.00000000       0.008
  -0.36363636  0.33333333  0.00000000       0.008
  -0.27272727  0.33333333 -0.00000000       0.008
  -0.18181818  0.33333333 -0.00000000       0.008
  -0.09090909  0.33333333 -0.00000000       0.008
  -0.00000000  0.50000000  0.00000000       0.004
   0.09090909  0.50000000  0.00000000       0.008
   0.18181818  0.50000000 -0.00000000       0.008
   0.27272727  0.50000000  0.00000000       0.008
   0.36363636  0.50000000  0.00000000       0.008
   0.45454545  0.50000000 -0.00000000       0.008
   0.00000000 -0.00000000  0.25000000       0.008
   0.09090909  0.00000000  0.25000000       0.008
   0.18181818  0.00000000  0.25000000       0.008
   0.27272727  0.00000000  0.25000000       0.008
   0.36363636 -0.00000000  0.25000000       0.008
   0.45454545  0.00000000  0.25000000       0.008
  -0.45454545 -0.00000000  0.25000000       0.008
  -0.36363636 -0.00000000  0.25000000       0.008
  -0.27272727 -0.00000000  0.25000000       0.008
  -0.18181818  0.00000000  0.25000000       0.008
  -0.09090909 -0.00000000  0.25000000       0.008
   0.00000000  0.16666667  0.25000000       0.008
   0.09090909  0.16666667  0.25000000       0.008
   0.18181818  0.16666667  0.25000000       0.008
   0.27272727  0.16666667  0.25000000       0.008
   0.36363636  0.16666667  0.25000000       0.008
   0.45454545  0.16666667  0.25000000       0.008
  -0.45454545  0.16666667  0.25000000       0.008
  -0.36363636  0.16666667  0.25000000       0.008
  -0.27272727  0.16666667  0.25000000       0.008
  -0.18181818  0.16666667  0.25000000       0.008
  -0.09090909  0.16666667  0.25000000       0.008
   0.00000000  0.33333333  0.25000000       0.008
   0.09090909  0.33333333  0.25000000       0.008
   0.18181818  0.33333333  0.25000000       0.008
   0.27272727  0.33333333  0.25000000       0.008
   0.36363636  0.33333333  0.25000000       0.008
   0.45454545  0.33333333  0.25000000       0.008
  -0.45454545  0.33333333  0.25000000       0.008
  -0.36363636  0.33333333  0.25000000       0.008
  -0.27272727  0.33333333  0.25000000       0.008
  -0.18181818  0.33333333  0.25000000       0.008
  -0.09090909  0.33333333  0.25000000       0.008
  -0.00000000  0.50000000  0.25000000       0.008
   0.09090909  0.50000000  0.25000000       0.008
   0.18181818  0.50000000  0.25000000       0.008
   0.27272727  0.50000000  0.25000000       0.008
   0.36363636  0.50000000  0.25000000       0.008
   0.45454545  0.50000000  0.25000000       0.008
  -0.45454545  0.50000000  0.25000000       0.008
  -0.36363636  0.50000000  0.25000000       0.008
  -0.27272727  0.50000000  0.25000000       0.008
  -0.18181818  0.50000000  0.25000000       0.008
  -0.09090909  0.50000000  0.25000000       0.008
   0.00000000 -0.33333333  0.25000000       0.008
   0.09090909 -0.33333333  0.25000000       0.008
   0.18181818 -0.33333333  0.25000000       0.008
   0.27272727 -0.33333333  0.25000000       0.008
   0.36363636 -0.33333333  0.25000000       0.008
   0.45454545 -0.33333333  0.25000000       0.008
  -0.45454545 -0.33333333  0.25000000       0.008
  -0.36363636 -0.33333333  0.25000000       0.008
  -0.27272727 -0.33333333  0.25000000       0.008
  -0.18181818 -0.33333333  0.25000000       0.008
  -0.09090909 -0.33333333  0.25000000       0.008
   0.00000000 -0.16666667  0.25000000       0.008
   0.09090909 -0.16666667  0.25000000       0.008
   0.18181818 -0.16666667  0.25000000       0.008
   0.27272727 -0.16666667  0.25000000       0.008
   0.36363636 -0.16666667  0.25000000       0.008
   0.45454545 -0.16666667  0.25000000       0.008
  -0.45454545 -0.16666667  0.25000000       0.008
  -0.36363636 -0.16666667  0.25000000       0.008
  -0.27272727 -0.16666667  0.25000000       0.008
  -0.18181818 -0.16666667  0.25000000       0.008
  -0.09090909 -0.16666667  0.25000000       0.008
   0.00000000 -0.00000000  0.50000000       0.004
   0.09090909 -0.00000000  0.50000000       0.008
   0.18181818  0.00000000  0.50000000       0.008
   0.27272727 -0.00000000  0.50000000       0.008
   0.36363636  0.00000000  0.50000000       0.008
   0.45454545 -0.00000000  0.50000000       0.008
  -0.00000000  0.16666667  0.50000000       0.008
   0.09090909  0.16666667  0.50000000       0.008
   0.18181818  0.16666667  0.50000000       0.008
   0.27272727  0.16666667  0.50000000       0.008
   0.36363636  0.16666667  0.50000000       0.008
   0.45454545  0.16666667  0.50000000       0.008
  -0.45454545  0.16666667  0.50000000       0.008
  -0.36363636  0.16666667  0.50000000       0.008
  -0.27272727  0.16666667  0.50000000       0.008
  -0.18181818  0.16666667  0.50000000       0.008
  -0.09090909  0.16666667  0.50000000       0.008
   0.00000000  0.33333333  0.50000000       0.008
   0.09090909  0.33333333  0.50000000       0.008
   0.18181818  0.33333333  0.50000000       0.008
   0.27272727  0.33333333  0.50000000       0.008
   0.36363636  0.33333333  0.50000000       0.008
   0.45454545  0.33333333  0.50000000       0.008
  -0.45454545  0.33333333  0.50000000       0.008
  -0.36363636  0.33333333  0.50000000       0.008
  -0.27272727  0.33333333  0.50000000       0.008
  -0.18181818  0.33333333  0.50000000       0.008
  -0.09090909  0.33333333  0.50000000       0.008
  -0.00000000  0.50000000  0.50000000       0.004
   0.09090909  0.50000000  0.50000000       0.008
   0.18181818  0.50000000  0.50000000       0.008
   0.27272727  0.50000000  0.50000000       0.008
   0.36363636  0.50000000  0.50000000       0.008
   0.45454545  0.50000000  0.50000000       0.008
 
 position of ions in fractional coordinates (direct lattice) 
   0.25001214  0.05058768  0.85788433
   0.75000301  0.94946367  0.14208785
   0.74999694  0.55064186  0.64205703
   0.24998612  0.44928551  0.35792477
   0.25000058  0.70208253  0.52175077
   0.75000967  0.20196863  0.97815658
   0.24999658  0.79795356  0.02184509
   0.74998868  0.29792779  0.47827449
   0.24997290  0.15980014  0.23336640
   0.25003248  0.34022316  0.73334707
   0.74997299  0.65983019  0.26667731
   0.75002789  0.84023629  0.76662929
 
 position of ions in cartesian coordinates  (Angst):
   0.67220596  0.24508600  7.86131715
   2.01654589  4.57730548  1.30264942
   2.01652217  2.65540564  5.88389385
   0.67214339  2.16638813  3.28016078
   0.67218592  3.38528339  4.78155575
   2.01655016  0.97502604  8.96353989
   0.67217776  3.84674284  0.20069689
   2.01649632  1.43691036  4.38289721
   0.67210352  0.77068430  2.13857378
   0.67226550  1.64116080  6.72029892
   2.01646032  3.18124037  2.44414608
   2.01660971  4.05163528  7.02560830
 


--------------------------------------------------------------------------------------------------------


 k-point  1 :   0.0000 0.0000 0.0000  plane waves:    3171
 k-point  2 :   0.0909-0.0000 0.0000  plane waves:    3178
 k-point  3 :   0.1818-0.0000 0.0000  plane waves:    3178
 k-point  4 :   0.2727-0.0000-0.0000  plane waves:    3186
 k-point  5 :   0.3636-0.0000 0.0000  plane waves:    3208
 k-point  6 :   0.4545-0.0000 0.0000  plane waves:    3208
 k-point  7 :   0.0000 0.1667-0.0000  plane waves:    3164
 k-point  8 :   0.0909 0.1667 0.0000  plane waves:    3172
 k-point  9 :   0.1818 0.1667-0.0000  plane waves:    3184
 k-point 10 :   0.2727 0.1667 0.0000  plane waves:    3196
 k-point 11 :   0.3636 0.1667-0.0000  plane waves:    3218
 k-point 12 :   0.4545 0.1667-0.0000  plane waves:    3203
 k-point 13 :  -0.4545 0.1667 0.0000  plane waves:    3203
 k-point 14 :  -0.3636 0.1667-0.0000  plane waves:    3218
 k-point 15 :  -0.2727 0.1667-0.0000  plane waves:    3196
 k-point 16 :  -0.1818 0.1667 0.0000  plane waves:    3184
 k-point 17 :  -0.0909 0.1667-0.0000  plane waves:    3172
 k-point 18 :   0.0000 0.3333-0.0000  plane waves:    3174
 k-point 19 :   0.0909 0.3333-0.0000  plane waves:    3187
 k-point 20 :   0.1818 0.3333 0.0000  plane waves:    3199
 k-point 21 :   0.2727 0.3333-0.0000  plane waves:    3208
 k-point 22 :   0.3636 0.3333-0.0000  plane waves:    3202
 k-point 23 :   0.4545 0.3333-0.0000  plane waves:    3209
 k-point 24 :  -0.4545 0.3333 0.0000  plane waves:    3209
 k-point 25 :  -0.3636 0.3333 0.0000  plane waves:    3202
 k-point 26 :  -0.2727 0.3333-0.0000  plane waves:    3208
 k-point 27 :  -0.1818 0.3333-0.0000  plane waves:    3199
 k-point 28 :  -0.0909 0.3333-0.0000  plane waves:    3187
 k-point 29 :  -0.0000 0.5000 0.0000  plane waves:    3174
 k-point 30 :   0.0909 0.5000 0.0000  plane waves:    3200
 k-point 31 :   0.1818 0.5000-0.0000  plane waves:    3196
 k-point 32 :   0.2727 0.5000 0.0000  plane waves:    3206
 k-point 33 :   0.3636 0.5000 0.0000  plane waves:    3202
 k-point 34 :   0.4545 0.5000-0.0000  plane waves:    3218
 k-point 35 :   0.0000-0.0000 0.2500  plane waves:    3164
 k-point 36 :   0.0909 0.0000 0.2500  plane waves:    3179
 k-point 37 :   0.1818 0.0000 0.2500  plane waves:    3180
 k-point 38 :   0.2727 0.0000 0.2500  plane waves:    3180
 k-point 39 :   0.3636-0.0000 0.2500  plane waves:    3212
 k-point 40 :   0.4545 0.0000 0.2500  plane waves:    3201
 k-point 41 :  -0.4545-0.0000 0.2500  plane waves:    3201
 k-point 42 :  -0.3636-0.0000 0.2500  plane waves:    3212
 k-point 43 :  -0.2727-0.0000 0.2500  plane waves:    3180
 k-point 44 :  -0.1818 0.0000 0.2500  plane waves:    3180
 k-point 45 :  -0.0909-0.0000 0.2500  plane waves:    3179
 k-point 46 :   0.0000 0.1667 0.2500  plane waves:    3156
 k-point 47 :   0.0909 0.1667 0.2500  plane waves:    3181
 k-point 48 :   0.1818 0.1667 0.2500  plane waves:    3192
 k-point 49 :   0.2727 0.1667 0.2500  plane waves:    3201
 k-point 50 :   0.3636 0.1667 0.2500  plane waves:    3214
 k-point 51 :   0.4545 0.1667 0.2500  plane waves:    3215
 k-point 52 :  -0.4545 0.1667 0.2500  plane waves:    3215
 k-point 53 :  -0.3636 0.1667 0.2500  plane waves:    3214
 k-point 54 :  -0.2727 0.1667 0.2500  plane waves:    3201
 k-point 55 :  -0.1818 0.1667 0.2500  plane waves:    3192
 k-point 56 :  -0.0909 0.1667 0.2500  plane waves:    3181
 k-point 57 :   0.0000 0.3333 0.2500  plane waves:    3171
 k-point 58 :   0.0909 0.3333 0.2500  plane waves:    3181
 k-point 59 :   0.1818 0.3333 0.2500  plane waves:    3208
 k-point 60 :   0.2727 0.3333 0.2500  plane waves:    3214
 k-point 61 :   0.3636 0.3333 0.2500  plane waves:    3213
 k-point 62 :   0.4545 0.3333 0.2500  plane waves:    3214
 k-point 63 :  -0.4545 0.3333 0.2500  plane waves:    3214
 k-point 64 :  -0.3636 0.3333 0.2500  plane waves:    3213
 k-point 65 :  -0.2727 0.3333 0.2500  plane waves:    3214
 k-point 66 :  -0.1818 0.3333 0.2500  plane waves:    3208
 k-point 67 :  -0.0909 0.3333 0.2500  plane waves:    3181
 k-point 68 :  -0.0000 0.5000 0.2500  plane waves:    3164
 k-point 69 :   0.0909 0.5000 0.2500  plane waves:    3192
 k-point 70 :   0.1818 0.5000 0.2500  plane waves:    3204
 k-point 71 :   0.2727 0.5000 0.2500  plane waves:    3213
 k-point 72 :   0.3636 0.5000 0.2500  plane waves:    3209
 k-point 73 :   0.4545 0.5000 0.2500  plane waves:    3218
 k-point 74 :  -0.4545 0.5000 0.2500  plane waves:    3218
 k-point 75 :  -0.3636 0.5000 0.2500  plane waves:    3209
 k-point 76 :  -0.2727 0.5000 0.2500  plane waves:    3213
 k-point 77 :  -0.1818 0.5000 0.2500  plane waves:    3204
 k-point 78 :  -0.0909 0.5000 0.2500  plane waves:    3192
 k-point 79 :   0.0000-0.3333 0.2500  plane waves:    3171
 k-point 80 :   0.0909-0.3333 0.2500  plane waves:    3183
 k-point 81 :   0.1818-0.3333 0.2500  plane waves:    3210
 k-point 82 :   0.2727-0.3333 0.2500  plane waves:    3215
 k-point 83 :   0.3636-0.3333 0.2500  plane waves:    3213
 k-point 84 :   0.4545-0.3333 0.2500  plane waves:    3215
 k-point 85 :  -0.4545-0.3333 0.2500  plane waves:    3215
 k-point 86 :  -0.3636-0.3333 0.2500  plane waves:    3213
 k-point 87 :  -0.2727-0.3333 0.2500  plane waves:    3215
 k-point 88 :  -0.1818-0.3333 0.2500  plane waves:    3210
 k-point 89 :  -0.0909-0.3333 0.2500  plane waves:    3183
 k-point 90 :   0.0000-0.1667 0.2500  plane waves:    3156
 k-point 91 :   0.0909-0.1667 0.2500  plane waves:    3183
 k-point 92 :   0.1818-0.1667 0.2500  plane waves:    3193
 k-point 93 :   0.2727-0.1667 0.2500  plane waves:    3201
 k-point 94 :   0.3636-0.1667 0.2500  plane waves:    3215
 k-point 95 :   0.4545-0.1667 0.2500  plane waves:    3216
 k-point 96 :  -0.4545-0.1667 0.2500  plane waves:    3216
 k-point 97 :  -0.3636-0.1667 0.2500  plane waves:    3215
 k-point 98 :  -0.2727-0.1667 0.2500  plane waves:    3201
 k-point 99 :  -0.1818-0.1667 0.2500  plane waves:    3193
 k-point ** :  -0.0909-0.1667 0.2500  plane waves:    3183
 k-point ** :   0.0000-0.0000 0.5000  plane waves:    3170
 k-point ** :   0.0909-0.0000 0.5000  plane waves:    3190
 k-point ** :   0.1818 0.0000 0.5000  plane waves:    3196
 k-point ** :   0.2727-0.0000 0.5000  plane waves:    3188
 k-point ** :   0.3636 0.0000 0.5000  plane waves:    3200
 k-point ** :   0.4545-0.0000 0.5000  plane waves:    3216
 k-point ** :  -0.0000 0.1667 0.5000  plane waves:    3168
 k-point ** :   0.0909 0.1667 0.5000  plane waves:    3181
 k-point ** :   0.1818 0.1667 0.5000  plane waves:    3192
 k-point ** :   0.2727 0.1667 0.5000  plane waves:    3204
 k-point ** :   0.3636 0.1667 0.5000  plane waves:    3206
 k-point ** :   0.4545 0.1667 0.5000  plane waves:    3216
 k-point ** :  -0.4545 0.1667 0.5000  plane waves:    3216
 k-point ** :  -0.3636 0.1667 0.5000  plane waves:    3206
 k-point ** :  -0.2727 0.1667 0.5000  plane waves:    3204
 k-point ** :  -0.1818 0.1667 0.5000  plane waves:    3192
 k-point ** :  -0.0909 0.1667 0.5000  plane waves:    3181
 k-point ** :   0.0000 0.3333 0.5000  plane waves:    3164
 k-point ** :   0.0909 0.3333 0.5000  plane waves:    3178
 k-point ** :   0.1818 0.3333 0.5000  plane waves:    3205
 k-point ** :   0.2727 0.3333 0.5000  plane waves:    3206
 k-point ** :   0.3636 0.3333 0.5000  plane waves:    3224
 k-point ** :   0.4545 0.3333 0.5000  plane waves:    3220
 k-point ** :  -0.4545 0.3333 0.5000  plane waves:    3220
 k-point ** :  -0.3636 0.3333 0.5000  plane waves:    3224
 k-point ** :  -0.2727 0.3333 0.5000  plane waves:    3206
 k-point ** :  -0.1818 0.3333 0.5000  plane waves:    3206
 k-point ** :  -0.0909 0.3333 0.5000  plane waves:    3178
 k-point ** :  -0.0000 0.5000 0.5000  plane waves:    3176
 k-point ** :   0.0909 0.5000 0.5000  plane waves:    3176
 k-point ** :   0.1818 0.5000 0.5000  plane waves:    3196
 k-point ** :   0.2727 0.5000 0.5000  plane waves:    3208
 k-point ** :   0.3636 0.5000 0.5000  plane waves:    3224
 k-point ** :   0.4545 0.5000 0.5000  plane waves:    3216

 maximum and minimum number of plane-waves per node :       821      764

 maximum number of plane-waves:      3224
 maximum index in each direction: 
   IXMAX=    5   IYMAX=    9   IZMAX=   17
   IXMIN=   -5   IYMIN=   -9   IZMIN=  -17


 real space projection operators:
  total allocation   :       4225.58 KBytes
  max/ min on nodes  :       1058.55       1054.25


 parallel 3D FFT for wavefunctions:
    minimum data exchange during FFTs selected (reduces bandwidth)
 parallel 3D FFT for charge:
    minimum data exchange during FFTs selected (reduces bandwidth)


 total amount of memory used by VASP MPI-rank0   118496. kBytes
=======================================================================

   base      :      30000. kBytes
   nonlr-proj:       2402. kBytes
   fftplans  :       1370. kBytes
   grid      :       2865. kBytes
   one-center:         46. kBytes
   wavefun   :      81813. kBytes
 
     INWAV:  cpu time    0.8833: real time    1.7717
 Broyden mixing: mesh for mixing (old mesh)
   NGX =  9   NGY = 17   NGZ = 35
  (NGX  = 40   NGY  = 72   NGZ  =140)
  gives a total of   5355 points

 charge density for first step will be calculated from the start-wavefunctions


--------------------------------------------------------------------------------------------------------


 Maximum index for non-local projection operator         1307
 Maximum index for augmentation-charges         1003 (set IRDMAX)


--------------------------------------------------------------------------------------------------------


 initial charge from wavefunction
 First call to EWALD:  gamma=   0.361
 Maximum number of real-space cells 5x 3x 2
 Maximum number of reciprocal cells 2x 3x 5

    FEWALD:  cpu time    0.0024: real time    0.0030


--------------------------------------- Iteration      1(   1)  ---------------------------------------


    POTLOK:  cpu time    0.0745: real time    0.1414
    SETDIJ:  cpu time    0.9596: real time    1.0904
    TRIAL :  cpu time   10.8477: real time   21.7467
    CORREC:  cpu time    5.7480: real time   11.5228
    CHARGE:  cpu time    1.9847: real time    3.9881
    --------------------------------------------
      LOOP:  cpu time   19.6226: real time   38.5149

 eigenvalue-minimisations  :     0
 total energy-change (2. order) :-0.1237425E+03  (-0.1716065E+00)
 number of electron      99.9999986 magnetization 
 augmentation part       33.6483372 magnetization 

 Free energy of the ion-electron system (eV)
  ---------------------------------------------------
  alpha Z        PSCENC =       468.37989816
  Ewald energy   TEWEN  =     -7440.91207067
  -Hartree energ DENC   =     -3701.49852270
  -exchange      EXHF   =         0.00000000
  -V(xc)+E(xc)   XCENC  =       588.18160465
  PAW double counting   =     12022.59474722   -12288.73525519
  entropy T*S    EENTRO =        -0.00100584
  eigenvalues    EBANDS =     -1331.65850700
  atomic energy  EATOM  =     11559.90638050
  ---------------------------------------------------
  free energy    TOTEN  =      -123.74254658 eV

  energy without entropy =     -123.74154074  energy(sigma->0) =     -123.74204366


--------------------------------------------------------------------------------------------------------




--------------------------------------- Iteration      1(   2)  ---------------------------------------


    POTLOK:  cpu time    0.1329: real time    0.1391
    SETDIJ:  cpu time    1.1059: real time    1.1076
    TRIAL :  cpu time   18.1880: real time   20.8654
    CORREC:  cpu time    8.8887: real time   10.8703
    CHARGE:  cpu time    3.9798: real time    3.9886
    --------------------------------------------
      LOOP:  cpu time   32.2964: real time   36.9730

 eigenvalue-minimisations  :     0
 total energy-change (2. order) :-0.1719489E+00  (-0.3201981E-01)
 number of electron      99.9999986 magnetization 
 augmentation part       33.6667016 magnetization 

 Free energy of the ion-electron system (eV)
  ---------------------------------------------------
  alpha Z        PSCENC =       468.37989816
  Ewald energy   TEWEN  =     -7440.91207067
  -Hartree energ DENC   =     -3692.11934619
  -exchange      EXHF   =         0.00000000
  -V(xc)+E(xc)   XCENC  =       588.41740387
  PAW double counting   =     12246.63405146   -12511.97591553
  entropy T*S    EENTRO =        -0.00106377
  eigenvalues    EBANDS =     -1342.24389121
  atomic energy  EATOM  =     11559.90638050
  ---------------------------------------------------
  free energy    TOTEN  =      -123.91449545 eV

  energy without entropy =     -123.91343168  energy(sigma->0) =     -123.91396357


--------------------------------------------------------------------------------------------------------




--------------------------------------- Iteration      1(   3)  ---------------------------------------


    POTLOK:  cpu time    0.1379: real time    0.1385
    SETDIJ:  cpu time    0.7883: real time    0.7894
    TRIAL :  cpu time   21.5227: real time   21.5650
    CORREC:  cpu time   11.0740: real time   11.0973
    CHARGE:  cpu time    3.9495: real time    3.9591
    --------------------------------------------
      LOOP:  cpu time   37.4741: real time   37.5511

 eigenvalue-minimisations  :     0
 total energy-change (2. order) :-0.3152193E-01  (-0.4708408E-01)
 number of electron      99.9999986 magnetization 
 augmentation part       33.7031870 magnetization 

 Free energy of the ion-electron system (eV)
  ---------------------------------------------------
  alpha Z        PSCENC =       468.37989816
  Ewald energy   TEWEN  =     -7440.91207067
  -Hartree energ DENC   =     -3693.64690227
  -exchange      EXHF   =         0.00000000
  -V(xc)+E(xc)   XCENC  =       588.45982016
  PAW double counting   =     12321.16557113   -12586.90719223
  entropy T*S    EENTRO =        -0.00118595
  eigenvalues    EBANDS =     -1340.39045840
  atomic energy  EATOM  =     11559.90638050
  ---------------------------------------------------
  free energy    TOTEN  =      -123.94601738 eV

  energy without entropy =     -123.94483143  energy(sigma->0) =     -123.94542441


--------------------------------------------------------------------------------------------------------




--------------------------------------- Iteration      1(   4)  ---------------------------------------


    POTLOK:  cpu time    0.1340: real time    0.1345
    SETDIJ:  cpu time    1.1023: real time    1.1035
    TRIAL :  cpu time   20.9821: real time   21.0167
    CORREC:  cpu time   10.5516: real time   10.5639
    CHARGE:  cpu time    3.8916: real time    3.8961
    --------------------------------------------
      LOOP:  cpu time   36.6630: real time   36.7162

 eigenvalue-minimisations  :     0
 total energy-change (2. order) :-0.4629778E-01  (-0.8583384E-02)
 number of electron      99.9999986 magnetization 
 augmentation part       33.7018260 magnetization 

 Free energy of the ion-electron system (eV)
  ---------------------------------------------------
  alpha Z        PSCENC =       468.37989816
  Ewald energy   TEWEN  =     -7440.91207067
  -Hartree energ DENC   =     -3697.17711043
  -exchange      EXHF   =         0.00000000
  -V(xc)+E(xc)   XCENC  =       588.48988097
  PAW double counting   =     12455.22345245   -12721.80240855
  entropy T*S    EENTRO =        -0.00106678
  eigenvalues    EBANDS =     -1336.09915164
  atomic energy  EATOM  =     11559.90638050
  ---------------------------------------------------
  free energy    TOTEN  =      -123.99231516 eV

  energy without entropy =     -123.99124839  energy(sigma->0) =     -123.99178177


--------------------------------------------------------------------------------------------------------




--------------------------------------- Iteration      1(   5)  ---------------------------------------


    POTLOK:  cpu time    0.1392: real time    0.1401
    SETDIJ:  cpu time    0.7979: real time    0.7986
    TRIAL :  cpu time   20.9331: real time   20.9599
    CORREC:  cpu time   10.6958: real time   10.7137
    CHARGE:  cpu time    3.9756: real time    3.9809
    --------------------------------------------
      LOOP:  cpu time   36.5424: real time   36.5947

 eigenvalue-minimisations  :     0
 total energy-change (2. order) :-0.7849869E-02  (-0.9982421E-02)
 number of electron      99.9999986 magnetization 
 augmentation part       33.6728941 magnetization 

 Free energy of the ion-electron system (eV)
  ---------------------------------------------------
  alpha Z        PSCENC =       468.37989816
  Ewald energy   TEWEN  =     -7440.91207067
  -Hartree energ DENC   =     -3696.93847507
  -exchange      EXHF   =         0.00000000
  -V(xc)+E(xc)   XCENC  =       588.44491302
  PAW double counting   =     12488.36283664   -12754.98933824
  entropy T*S    EENTRO =        -0.00094845
  eigenvalues    EBANDS =     -1336.25324258
  atomic energy  EATOM  =     11559.90638050
  ---------------------------------------------------
  free energy    TOTEN  =      -124.00016503 eV

  energy without entropy =     -123.99921658  energy(sigma->0) =     -123.99969081


--------------------------------------------------------------------------------------------------------




--------------------------------------- Iteration      1(   6)  ---------------------------------------


    POTLOK:  cpu time    0.1421: real time    0.1426
    SETDIJ:  cpu time    0.8128: real time    0.8135
    TRIAL :  cpu time   20.5452: real time   20.5769
    CORREC:  cpu time   10.5788: real time   10.5941
    CHARGE:  cpu time    3.9728: real time    3.9781
    --------------------------------------------
      LOOP:  cpu time   36.0532: real time   36.1069

 eigenvalue-minimisations  :     0
 total energy-change (2. order) :-0.1009686E-01  (-0.5181069E-02)
 number of electron      99.9999986 magnetization 
 augmentation part       33.6580461 magnetization 

 Free energy of the ion-electron system (eV)
  ---------------------------------------------------
  alpha Z        PSCENC =       468.37989816
  Ewald energy   TEWEN  =     -7440.91207067
  -Hartree energ DENC   =     -3693.76925219
  -exchange      EXHF   =         0.00000000
  -V(xc)+E(xc)   XCENC  =       588.26418532
  PAW double counting   =     12538.35166094   -12804.61797898
  entropy T*S    EENTRO =        -0.00094912
  eigenvalues    EBANDS =     -1339.61213653
  atomic energy  EATOM  =     11559.90638050
  ---------------------------------------------------
  free energy    TOTEN  =      -124.01026189 eV

  energy without entropy =     -124.00931277  energy(sigma->0) =     -124.00978733


--------------------------------------------------------------------------------------------------------




--------------------------------------- Iteration      1(   7)  ---------------------------------------


    POTLOK:  cpu time    0.1303: real time    0.1304
    SETDIJ:  cpu time    1.3295: real time    1.3313
    TRIAL :  cpu time   21.9020: real time   21.9333
    CORREC:  cpu time   11.6793: real time   11.6987
    CHARGE:  cpu time    3.9647: real time    3.9700
    --------------------------------------------
      LOOP:  cpu time   39.0065: real time   39.0680

 eigenvalue-minimisations  :     0
 total energy-change (2. order) :-0.5154117E-02  (-0.4972247E-02)
 number of electron      99.9999986 magnetization 
 augmentation part       33.6540198 magnetization 

 Free energy of the ion-electron system (eV)
  ---------------------------------------------------
  alpha Z        PSCENC =       468.37989816
  Ewald energy   TEWEN  =     -7440.91207067
  -Hartree energ DENC   =     -3692.23856395
  -exchange      EXHF   =         0.00000000
  -V(xc)+E(xc)   XCENC  =       588.18039679
  PAW double counting   =     12565.96967577   -12832.05326137
  entropy T*S    EENTRO =        -0.00103360
  eigenvalues    EBANDS =     -1341.24692213
  atomic energy  EATOM  =     11559.90638050
  ---------------------------------------------------
  free energy    TOTEN  =      -124.01541600 eV

  energy without entropy =     -124.01438240  energy(sigma->0) =     -124.01489920


--------------------------------------------------------------------------------------------------------




--------------------------------------- Iteration      1(   8)  ---------------------------------------


    POTLOK:  cpu time    0.1283: real time    0.1289
    SETDIJ:  cpu time    1.3206: real time    1.3227
    TRIAL :  cpu time   21.3197: real time   21.3510
    CORREC:  cpu time   11.3582: real time   11.3740
    CHARGE:  cpu time    3.9755: real time    3.9812
    --------------------------------------------
      LOOP:  cpu time   38.1035: real time   38.1592

 eigenvalue-minimisations  :     0
 total energy-change (2. order) :-0.4987795E-02  (-0.4499892E-02)
 number of electron      99.9999986 magnetization 
 augmentation part       33.6539171 magnetization 

 Free energy of the ion-electron system (eV)
  ---------------------------------------------------
  alpha Z        PSCENC =       468.37989816
  Ewald energy   TEWEN  =     -7440.91207067
  -Hartree energ DENC   =     -3692.55009908
  -exchange      EXHF   =         0.00000000
  -V(xc)+E(xc)   XCENC  =       588.19436618
  PAW double counting   =     12612.36956849   -12878.46675346
  entropy T*S    EENTRO =        -0.00127032
  eigenvalues    EBANDS =     -1340.94066031
  atomic energy  EATOM  =     11559.90638050
  ---------------------------------------------------
  free energy    TOTEN  =      -124.02040380 eV

  energy without entropy =     -124.01913348  energy(sigma->0) =     -124.01976864


--------------------------------------------------------------------------------------------------------




--------------------------------------- Iteration      1(   9)  ---------------------------------------


    POTLOK:  cpu time    0.1324: real time    0.1333
    SETDIJ:  cpu time    1.3195: real time    1.3212
    TRIAL :  cpu time   20.9914: real time   21.0237
    CORREC:  cpu time   10.4710: real time   10.4858
    CHARGE:  cpu time    3.8518: real time    3.8567
    --------------------------------------------
      LOOP:  cpu time   36.7675: real time   36.8222

 eigenvalue-minimisations  :     0
 total energy-change (2. order) :-0.4878974E-03  (-0.2832984E-02)
 number of electron      99.9999986 magnetization 
 augmentation part       33.6597138 magnetization 

 Free energy of the ion-electron system (eV)
  ---------------------------------------------------
  alpha Z        PSCENC =       468.37989816
  Ewald energy   TEWEN  =     -7440.91207067
  -Hartree energ DENC   =     -3693.22954915
  -exchange      EXHF   =         0.00000000
  -V(xc)+E(xc)   XCENC  =       588.22707353
  PAW double counting   =     12660.37306137   -12926.53317825
  entropy T*S    EENTRO =        -0.00115689
  eigenvalues    EBANDS =     -1340.23123687
  atomic energy  EATOM  =     11559.90638050
  ---------------------------------------------------
  free energy    TOTEN  =      -124.02089170 eV

  energy without entropy =     -124.01973481  energy(sigma->0) =     -124.02031325


--------------------------------------------------------------------------------------------------------




--------------------------------------- Iteration      1(  10)  ---------------------------------------


    POTLOK:  cpu time    0.1398: real time    0.1408
    SETDIJ:  cpu time    1.3355: real time    1.3374
    TRIAL :  cpu time   21.5932: real time   21.6242
    CORREC:  cpu time   11.7986: real time   11.8129
    CHARGE:  cpu time    3.8984: real time    3.9026
    --------------------------------------------
      LOOP:  cpu time   38.7666: real time   38.8192

 eigenvalue-minimisations  :     0
 total energy-change (2. order) :-0.2845858E-02  (-0.6401621E-02)
 number of electron      99.9999986 magnetization 
 augmentation part       33.6761581 magnetization 

 Free energy of the ion-electron system (eV)
  ---------------------------------------------------
  alpha Z        PSCENC =       468.37989816
  Ewald energy   TEWEN  =     -7440.91207067
  -Hartree energ DENC   =     -3693.62313185
  -exchange      EXHF   =         0.00000000
  -V(xc)+E(xc)   XCENC  =       588.25049314
  PAW double counting   =     12669.70843033   -12935.95559170
  entropy T*S    EENTRO =        -0.00105961
  eigenvalues    EBANDS =     -1339.77698859
  atomic energy  EATOM  =     11559.90638050
  ---------------------------------------------------
  free energy    TOTEN  =      -124.02373755 eV

  energy without entropy =     -124.02267794  energy(sigma->0) =     -124.02320775


--------------------------------------------------------------------------------------------------------




--------------------------------------- Iteration      1(  11)  ---------------------------------------


    POTLOK:  cpu time    0.1368: real time    0.1369
    SETDIJ:  cpu time    0.8063: real time    0.8070
    TRIAL :  cpu time   20.7534: real time   20.7835
    CORREC:  cpu time   10.4288: real time   10.4443
    CHARGE:  cpu time    4.2291: real time    4.2348
    --------------------------------------------
      LOOP:  cpu time   36.3557: real time   36.4078

 eigenvalue-minimisations  :     0
 total energy-change (2. order) :-0.5672793E-02  (-0.7940942E-03)
 number of electron      99.9999986 magnetization 
 augmentation part       33.6744929 magnetization 

 Free energy of the ion-electron system (eV)
  ---------------------------------------------------
  alpha Z        PSCENC =       468.37989816
  Ewald energy   TEWEN  =     -7440.91207067
  -Hartree energ DENC   =     -3694.77220090
  -exchange      EXHF   =         0.00000000
  -V(xc)+E(xc)   XCENC  =       588.31563441
  PAW double counting   =     12698.80936698   -12965.29071391
  entropy T*S    EENTRO =        -0.00104588
  eigenvalues    EBANDS =     -1338.46464530
  atomic energy  EATOM  =     11559.90638050
  ---------------------------------------------------
  free energy    TOTEN  =      -124.02941035 eV

  energy without entropy =     -124.02836447  energy(sigma->0) =     -124.02888741


--------------------------------------------------------------------------------------------------------




--------------------------------------- Iteration      1(  12)  ---------------------------------------


    POTLOK:  cpu time    0.1319: real time    0.1323
    SETDIJ:  cpu time    1.2945: real time    1.2956
    TRIAL :  cpu time   21.9988: real time   22.0243
    CORREC:  cpu time   11.6494: real time   11.6614
    CHARGE:  cpu time    4.1109: real time    4.1149
    --------------------------------------------
      LOOP:  cpu time   39.1872: real time   39.2305

 eigenvalue-minimisations  :     0
 total energy-change (2. order) :-0.7141843E-03  (-0.1521559E-02)
 number of electron      99.9999986 magnetization 
 augmentation part       33.6679300 magnetization 

 Free energy of the ion-electron system (eV)
  ---------------------------------------------------
  alpha Z        PSCENC =       468.37989816
  Ewald energy   TEWEN  =     -7440.91207067
  -Hartree energ DENC   =     -3694.40907635
  -exchange      EXHF   =         0.00000000
  -V(xc)+E(xc)   XCENC  =       588.30776025
  PAW double counting   =     12706.52227594   -12972.96436126
  entropy T*S    EENTRO =        -0.00097858
  eigenvalues    EBANDS =     -1338.85988521
  atomic energy  EATOM  =     11559.90638050
  ---------------------------------------------------
  free energy    TOTEN  =      -124.03012453 eV

  energy without entropy =     -124.02914595  energy(sigma->0) =     -124.02963524


--------------------------------------------------------------------------------------------------------




--------------------------------------- Iteration      1(  13)  ---------------------------------------


    POTLOK:  cpu time    0.1334: real time    0.1339
    SETDIJ:  cpu time    1.2743: real time    1.2756
    TRIAL :  cpu time   22.2363: real time   22.2698
    CORREC:  cpu time   12.0559: real time   12.0709
    CHARGE:  cpu time    4.1289: real time    4.1334
    --------------------------------------------
      LOOP:  cpu time   39.8303: real time   39.8854

 eigenvalue-minimisations  :     0
 total energy-change (2. order) :-0.1418459E-02  (-0.5425841E-03)
 number of electron      99.9999986 magnetization 
 augmentation part       33.6671489 magnetization 

 Free energy of the ion-electron system (eV)
  ---------------------------------------------------
  alpha Z        PSCENC =       468.37989816
  Ewald energy   TEWEN  =     -7440.91207067
  -Hartree energ DENC   =     -3693.28901229
  -exchange      EXHF   =         0.00000000
  -V(xc)+E(xc)   XCENC  =       588.27771890
  PAW double counting   =     12726.62803313   -12992.93348904
  entropy T*S    EENTRO =        -0.00093098
  eigenvalues    EBANDS =     -1340.08802310
  atomic energy  EATOM  =     11559.90638050
  ---------------------------------------------------
  free energy    TOTEN  =      -124.03154299 eV

  energy without entropy =     -124.03061202  energy(sigma->0) =     -124.03107750


--------------------------------------------------------------------------------------------------------




--------------------------------------- Iteration      1(  14)  ---------------------------------------


    POTLOK:  cpu time    0.1312: real time    0.1313
    SETDIJ:  cpu time    1.3003: real time    1.3019
    TRIAL :  cpu time   22.3568: real time   22.3858
    CORREC:  cpu time   11.4107: real time   11.4255
    CHARGE:  cpu time    3.9557: real time    3.9586
    --------------------------------------------
      LOOP:  cpu time   39.1563: real time   39.2048

 eigenvalue-minimisations  :     0
 total energy-change (2. order) :-0.4989491E-03  (-0.8990760E-03)
 number of electron      99.9999986 magnetization 
 augmentation part       33.6706231 magnetization 

 Free energy of the ion-electron system (eV)
  ---------------------------------------------------
  alpha Z        PSCENC =       468.37989816
  Ewald energy   TEWEN  =     -7440.91207067
  -Hartree energ DENC   =     -3693.19155169
  -exchange      EXHF   =         0.00000000
  -V(xc)+E(xc)   XCENC  =       588.27302169
  PAW double counting   =     12735.92406682   -13002.20869312
  entropy T*S    EENTRO =        -0.00082259
  eigenvalues    EBANDS =     -1340.20216265
  atomic energy  EATOM  =     11559.90638050
  ---------------------------------------------------
  free energy    TOTEN  =      -124.03204194 eV

  energy without entropy =     -124.03121935  energy(sigma->0) =     -124.03163065


--------------------------------------------------------------------------------------------------------




--------------------------------------- Iteration      1(  15)  ---------------------------------------


    POTLOK:  cpu time    0.1303: real time    0.1307
    SETDIJ:  cpu time    1.3003: real time    1.3013
    TRIAL :  cpu time   21.9064: real time   21.9295
    CORREC:  cpu time   11.4873: real time   11.5099
    CHARGE:  cpu time    4.0818: real time    4.0866
    --------------------------------------------
      LOOP:  cpu time   38.9080: real time   38.9600

 eigenvalue-minimisations  :     0
 total energy-change (2. order) :-0.8871758E-03  (-0.4252160E-03)
 number of electron      99.9999986 magnetization 
 augmentation part       33.6722810 magnetization 

 Free energy of the ion-electron system (eV)
  ---------------------------------------------------
  alpha Z        PSCENC =       468.37989816
  Ewald energy   TEWEN  =     -7440.91207067
  -Hartree energ DENC   =     -3693.89624601
  -exchange      EXHF   =         0.00000000
  -V(xc)+E(xc)   XCENC  =       588.28450915
  PAW double counting   =     12757.58500046   -13023.91760978
  entropy T*S    EENTRO =        -0.00077679
  eigenvalues    EBANDS =     -1339.46196834
  atomic energy  EATOM  =     11559.90638050
  ---------------------------------------------------
  free energy    TOTEN  =      -124.03292912 eV

  energy without entropy =     -124.03215232  energy(sigma->0) =     -124.03254072


[...]
     41       1.3543      2.00000
     42       1.3559      2.00000
     43       2.5310      2.00000
     44       2.5320      2.00000
     45       3.9382      2.00000
     46       3.9400      2.00000
     47       3.9447      2.00000
     48       3.9461      2.00000
     49       4.6220      1.99998
     50       4.6224      1.99993
     51       4.7051      0.00000
     52       4.7066      0.00000
     53       5.1224      0.00000
     54       5.1228      0.00000
     55       5.6174      0.00000
     56       5.6178      0.00000
     57       7.3330      0.00000
     58       7.3388      0.00000
     59       7.8390      0.00000
     60       7.8511      0.00000

 k-point   132 :       0.2727    0.5000    0.5000
  band No.  band energies     occupation 
      1     -46.1919      2.00000
      2     -46.1908      2.00000
      3     -46.1860      2.00000
      4     -46.1847      2.00000
      5     -46.1673      2.00000
      6     -46.1671      2.00000
      7     -46.1663      2.00000
      8     -46.1653      2.00000
      9     -46.0639      2.00000
     10     -46.0619      2.00000
     11     -46.0231      2.00000
     12     -46.0211      2.00000
     13     -15.8716      2.00000
     14     -15.8712      2.00000
     15     -15.5913      2.00000
     16     -15.5909      2.00000
     17     -15.0594      2.00000
     18     -15.0585      2.00000
     19     -14.5074      2.00000
     20     -14.5064      2.00000
     21      -2.4991      2.00000
     22      -2.4986      2.00000
     23      -2.2548      2.00000
     24      -2.2544      2.00000
     25      -1.9935      2.00000
     26      -1.9928      2.00000
     27      -1.9658      2.00000
     28      -1.9654      2.00000
     29      -1.0373      2.00000
     30      -1.0362      2.00000
     31      -0.4068      2.00000
     32      -0.4063      2.00000
     33       0.1163      2.00000
     34       0.1171      2.00000
     35       0.3383      2.00000
     36       0.3387      2.00000
     37       0.5995      2.00000
     38       0.6012      2.00000
     39       1.2098      2.00000
     40       1.2104      2.00000
     41       1.3678      2.00000
     42       1.3693      2.00000
     43       2.3912      2.00000
     44       2.3919      2.00000
     45       4.0258      2.00000
     46       4.0267      2.00000
     47       4.0944      2.00000
     48       4.0959      2.00000
     49       4.6482      1.33265
     50       4.6483      1.26179
     51       4.8088      0.00000
     52       4.8102      0.00000
     53       5.2274      0.00000
     54       5.2281      0.00000
     55       5.4757      0.00000
     56       5.4759      0.00000
     57       7.1811      0.00000
     58       7.1840      0.00000
     59       7.7183      0.00000
     60       7.7488      0.00000

 k-point   133 :       0.3636    0.5000    0.5000
  band No.  band energies     occupation 
      1     -46.2474      2.00000
      2     -46.2462      2.00000
      3     -46.2437      2.00000
      4     -46.2423      2.00000
      5     -46.1585      2.00000
      6     -46.1577      2.00000
      7     -46.1572      2.00000
      8     -46.1558      2.00000
      9     -46.0521      2.00000
     10     -46.0501      2.00000
     11     -46.0256      2.00000
     12     -46.0235      2.00000
     13     -15.5668      2.00000
     14     -15.5667      2.00000
     15     -15.4636      2.00000
     16     -15.4631      2.00000
     17     -14.9744      2.00000
     18     -14.9736      2.00000
     19     -14.5242      2.00000
     20     -14.5232      2.00000
     21      -2.6286      2.00000
     22      -2.6282      2.00000
     23      -2.3291      2.00000
     24      -2.3286      2.00000
     25      -2.1223      2.00000
     26      -2.1218      2.00000
     27      -2.0038      2.00000
     28      -2.0031      2.00000
     29      -1.3389      2.00000
     30      -1.3382      2.00000
     31      -0.7359      2.00000
     32      -0.7349      2.00000
     33       0.1831      2.00000
     34       0.1837      2.00000
     35       0.3491      2.00000
     36       0.3497      2.00000
     37       0.5210      2.00000
     38       0.5219      2.00000
     39       1.0746      2.00000
     40       1.0753      2.00000
     41       1.5813      2.00000
     42       1.5827      2.00000
     43       2.3323      2.00000
     44       2.3326      2.00000
     45       4.0174      2.00000
     46       4.0178      2.00000
     47       4.2085      2.00000
     48       4.2092      2.00000
     49       4.6762      0.00040
     50       4.6764      0.00030
     51       4.8399      0.00000
     52       4.8413      0.00000
     53       5.2655      0.00000
     54       5.2659      0.00000
     55       5.2710      0.00000
     56       5.2712      0.00000
     57       7.1555      0.00000
     58       7.1575      0.00000
     59       7.2443      0.00000
     60       7.2447      0.00000

 k-point   134 :       0.4545    0.5000    0.5000
  band No.  band energies     occupation 
      1     -46.2803      2.00000
      2     -46.2793      2.00000
      3     -46.2791      2.00000
      4     -46.2775      2.00000
      5     -46.1522      2.00000
      6     -46.1518      2.00000
      7     -46.1510      2.00000
      8     -46.1498      2.00000
      9     -46.0406      2.00000
     10     -46.0386      2.00000
     11     -46.0314      2.00000
     12     -46.0293      2.00000
     13     -15.4116      2.00000
     14     -15.4113      2.00000
     15     -15.3961      2.00000
     16     -15.3957      2.00000
     17     -14.7965      2.00000
     18     -14.7956      2.00000
     19     -14.6165      2.00000
     20     -14.6155      2.00000
     21      -2.7887      2.00000
     22      -2.7884      2.00000
     23      -2.6659      2.00000
     24      -2.6655      2.00000
     25      -1.9999      2.00000
     26      -1.9991      2.00000
     27      -1.9114      2.00000
     28      -1.9108      2.00000
     29      -1.3751      2.00000
     30      -1.3742      2.00000
     31      -1.1214      2.00000
     32      -1.1203      2.00000
     33       0.2391      2.00000
     34       0.2395      2.00000
     35       0.2962      2.00000
     36       0.2971      2.00000
     37       0.7034      2.00000
     38       0.7040      2.00000
     39       0.9111      2.00000
     40       0.9117      2.00000
     41       1.9138      2.00000
     42       1.9149      2.00000
     43       2.1997      2.00000
     44       2.2002      2.00000
     45       4.0220      2.00000
     46       4.0223      2.00000
     47       4.1385      2.00000
     48       4.1388      2.00000
     49       4.7850      0.00000
     50       4.7860      0.00000
     51       4.9056      0.00000
     52       4.9070      0.00000
     53       5.1067      0.00000
     54       5.1069      0.00000
     55       5.1951      0.00000
     56       5.1954      0.00000
     57       7.2054      0.00000
     58       7.2068      0.00000
     59       7.2419      0.00000
     60       7.2427      0.00000


--------------------------------------------------------------------------------------------------------


 soft charge-density along one line, spin component           1
         0         1         2         3         4         5         6         7         8         9
 total charge-density along one line
 
 pseudopotential strength for first ion, spin component:           1
-45.703  -0.056  -0.000   9.305   0.020   0.000  -0.000   0.007
 -0.056 -45.647  -0.000   0.020   9.277   0.000   0.000   0.003
 -0.000  -0.000 -45.674   0.000   0.000   9.301   0.008   0.000
  9.305   0.020   0.000   5.084  -0.009  -0.000   0.000   0.002
  0.020   9.277   0.000  -0.009   5.096  -0.000   0.000   0.000
  0.000   0.000   9.301  -0.000  -0.000   5.093  -0.002   0.000
 -0.000   0.000   0.008   0.000   0.000  -0.002  -4.629  -0.000
  0.007   0.003   0.000   0.002   0.000   0.000  -0.000  -4.514
 -0.002  -0.013  -0.000   0.001   0.003  -0.000   0.000  -0.085
  0.000  -0.000  -0.010   0.000   0.000  -0.003   0.105  -0.000
  0.001  -0.008  -0.000  -0.000  -0.003   0.000  -0.000   0.119
  0.000   0.000   0.007   0.000   0.000  -0.002  -5.093  -0.000
  0.007   0.003   0.000   0.002   0.000   0.000  -0.000  -4.979
 -0.002  -0.013  -0.000   0.001   0.003  -0.000   0.000  -0.084
  0.000  -0.000  -0.010   0.000   0.000  -0.003   0.104  -0.000
  0.001  -0.009  -0.000  -0.000  -0.002   0.000  -0.000   0.118
  0.001   0.000   0.000  -0.000  -0.004   0.000   0.000   0.008
  0.002   0.000   0.000  -0.000  -0.008   0.000   0.000   0.016
 total augmentation occupancy for first ion, spin component:           1
  1.984  -0.000  -0.000  -0.062  -0.001  -0.000   0.000   0.031  -0.003   0.000   0.011  -0.000  -0.030   0.003  -0.000  -0.010
 -0.000   1.984  -0.000  -0.001  -0.060   0.000   0.000  -0.014  -0.007   0.000  -0.021  -0.000   0.013   0.006  -0.000   0.020
 -0.000  -0.000   1.985  -0.000   0.000  -0.058   0.004   0.000  -0.000  -0.009  -0.000  -0.003  -0.000   0.000   0.009   0.000
 -0.062  -0.001  -0.000   0.282  -0.005   0.000   0.000   0.264  -0.091   0.000   0.172  -0.000  -0.294   0.075  -0.000  -0.177
 -0.001  -0.060   0.000  -0.005   0.286   0.000   0.000  -0.145  -0.173   0.000  -0.179  -0.000   0.160   0.187  -0.000   0.212
 -0.000   0.000  -0.058   0.000   0.000   0.275   0.127   0.000  -0.000  -0.028   0.000  -0.133  -0.000   0.000   0.076  -0.000
  0.000   0.000   0.004   0.000   0.000   0.127   6.670   0.000  -0.000  -0.008   0.000  -6.027  -0.000   0.000  -1.651  -0.000
  0.031  -0.014   0.000   0.264  -0.145   0.000   0.000   6.513  -0.045   0.000   1.114  -0.000  -6.895   0.746  -0.000  -2.231
 -0.003  -0.007  -0.000  -0.091  -0.173  -0.000  -0.000  -0.045   4.958  -0.000  -0.693   0.000   0.739  -3.737   0.000   0.877
  0.000   0.000  -0.009   0.000   0.000  -0.028  -0.008   0.000  -0.000   6.355  -0.000  -1.628  -0.000   0.000  -6.145  -0.000
  0.011  -0.021  -0.000   0.172  -0.179   0.000   0.000   1.114  -0.693  -0.000   5.007  -0.000  -2.244   0.880  -0.000  -4.548
 -0.000  -0.000  -0.003  -0.000  -0.000  -0.133  -6.027  -0.000   0.000  -1.628  -0.000   6.571   0.000  -0.000   2.889   0.000
 -0.030   0.013  -0.000  -0.294   0.160  -0.000  -0.000  -6.895   0.739  -0.000  -2.244   0.000   8.215  -1.255   0.000   3.129
  0.003   0.006   0.000   0.075   0.187   0.000   0.000   0.746  -3.737   0.000   0.880  -0.000  -1.255   3.724  -0.000  -1.028
 -0.000  -0.000   0.009  -0.000  -0.000   0.076  -1.651  -0.000   0.000  -6.145  -0.000   2.889   0.000  -0.000   7.025   0.000
 -0.010   0.020   0.000  -0.177   0.212  -0.000  -0.000  -2.231   0.877  -0.000  -4.548   0.000   3.129  -1.028   0.000   5.071
  0.007   0.008   0.000   0.062   0.007  -0.000  -0.000   0.574   0.277  -0.000  -0.413   0.000  -0.538  -0.155   0.000   0.301
 -0.004  -0.004  -0.000  -0.012   0.001   0.000   0.000  -0.138  -0.063   0.000   0.084  -0.000   0.139   0.031  -0.000  -0.061


------------------------ aborting loop because EDIFF is reached ----------------------------------------


 


 total charge     
 
# of ion       s       p       d       tot
------------------------------------------
    1        0.399   6.497   5.069  11.966
    2        0.399   6.497   5.069  11.966
    3        0.399   6.497   5.069  11.965
    4        0.399   6.497   5.069  11.966
    5        1.590   3.434   0.000   5.025
    6        1.590   3.435   0.000   5.025
    7        1.590   3.434   0.000   5.025
    8        1.590   3.434   0.000   5.025
    9        1.581   3.472   0.000   5.053
   10        1.581   3.472   0.000   5.053
   11        1.581   3.472   0.000   5.053
   12        1.581   3.472   0.000   5.053
--------------------------------------------------
tot         14.283  53.614  20.277  88.175
 
    FORLOC:  cpu time    0.0013: real time    0.0093
    FORNL :  cpu time    3.4875: real time   10.5831
    STRESS:  cpu time   57.5673: real time  213.4140
    FORCOR:  cpu time    0.0744: real time    0.2259
    OFIELD:  cpu time    0.0005: real time    0.0005

  FORCE on cell =-STRESS in cart. coord.  units (eV):
  Direction    XX          YY          ZZ          XY          YZ          ZX
  --------------------------------------------------------------------------------------
  Alpha Z   480.94162   480.94162   480.94162
  Ewald   -1158.64499 -3960.43414 -2383.65645     0.06836     0.18067    -0.00543
  Hartree  2171.63660   167.72086  1328.71262     0.02971     0.11750    -0.00215
  E(xc)    -589.04058  -588.56472  -588.96978     0.00007    -0.00011    -0.00001
  Local   -2666.65630  2106.75307  -621.84053    -0.09560    -0.28662     0.00728
  n-local  -311.50857  -306.26207  -303.44228     0.00154    -0.00408    -0.00042
  augment   472.15739   473.48876   475.73552    -0.00119    -0.00780     0.00019
  Kinetic  1601.14756  1626.39149  1612.51033    -0.00209    -0.00697     0.00019
  Fock        0.00000     0.00000     0.00000     0.00000     0.00000     0.00000
  -------------------------------------------------------------------------------------
  Total       0.03273     0.03487    -0.00894     0.00080    -0.00739    -0.00035
  in kB       0.45336     0.48305    -0.12386     0.01109    -0.10241    -0.00485
  external pressure =        0.27 kB  Pullay stress =        0.00 kB


 VOLUME and BASIS-vectors are now :
 -----------------------------------------------------------------------------
  energy-cutoff  :      520.00
  volume of cell :      115.67
      direct lattice vectors                 reciprocal lattice vectors
     2.673431339 -0.000002142  0.000001932     0.374051125  0.000000401  0.000000193
    -0.000005137  4.788456075  0.000473653     0.000000167  0.208835582 -0.000025269
    -0.000004668  0.001093314  9.035657830    -0.000000080 -0.000010947  0.110672630

  length of vectors
     2.673431339  4.788456099  9.035657896     0.374051125  0.208835584  0.110672630


 FORCES acting on ions:
    Electron-Ion                     Ewald-Force                    Non-Local-Force
 -----------------------------------------------------------------------------------------------
   -.574E-02 -.457E+02 0.134E+03   0.554E-02 0.466E+02 -.132E+03   0.166E-03 -.830E+00 -.152E+01
   -.439E-02 0.457E+02 -.134E+03   0.410E-02 -.466E+02 0.132E+03   0.631E-03 0.830E+00 0.152E+01
   -.454E-02 -.460E+02 -.133E+03   0.439E-02 0.468E+02 0.132E+03   0.133E-03 -.829E+00 0.152E+01
   0.904E-03 0.460E+02 0.133E+03   -.106E-02 -.468E+02 -.132E+03   0.285E-03 0.829E+00 -.152E+01
   -.768E-02 -.391E+03 0.867E+02   0.841E-02 0.415E+03 -.953E+02   -.593E-03 -.238E+02 0.862E+01
   -.470E-02 -.392E+03 -.865E+02   0.513E-02 0.415E+03 0.951E+02   -.429E-03 -.238E+02 -.859E+01
   0.713E-02 0.392E+03 0.865E+02   -.795E-02 -.415E+03 -.951E+02   0.694E-03 0.238E+02 0.859E+01
   0.565E-02 0.391E+03 -.868E+02   -.636E-02 -.415E+03 0.954E+02   0.732E-03 0.238E+02 -.862E+01
   -.423E-02 -.398E+02 -.541E+02   0.442E-02 0.427E+02 0.564E+02   -.276E-04 -.289E+01 -.227E+01
   0.110E-01 0.399E+02 -.541E+02   -.118E-01 -.427E+02 0.564E+02   0.664E-03 0.289E+01 -.229E+01
   -.395E-02 -.399E+02 0.541E+02   0.402E-02 0.428E+02 -.564E+02   0.268E-03 -.289E+01 0.228E+01
   0.825E-02 0.398E+02 0.542E+02   -.881E-02 -.427E+02 -.565E+02   0.510E-03 0.288E+01 0.228E+01
 -----------------------------------------------------------------------------------------------
   -.228E-02 0.495E-02 0.150E-02   -.574E-15 0.711E-14 -.497E-13   0.303E-02 -.468E-02 -.455E-03
 
 
 POSITION                                       TOTAL-FORCE (eV/Angst)
 -----------------------------------------------------------------------------------
      0.66838      0.24545      7.75002        -0.000091      0.006896     -0.005234
      2.00505      4.54405      1.28620         0.000268     -0.006199      0.003848
      2.00508      2.63994      5.80398        -0.000089      0.005717     -0.001501
      0.66832      2.14966      3.23212         0.000061     -0.006829      0.001956
      0.66834      3.36025      4.72135         0.000081     -0.010311     -0.006053
      2.00508      0.96642      8.83219        -0.000062     -0.009856      0.009638
      0.66836      3.82298      0.20397        -0.000192      0.010749     -0.007866
      2.00505      1.42928      4.31462        -0.000041      0.010346      0.009193
      0.66832      0.76436      2.10853         0.000100     -0.022921     -0.003897
      0.66842      1.63123      6.62665        -0.000187      0.017788     -0.002263
      2.00501      3.15834      2.40963         0.000266     -0.015669     -0.000223
      2.00513      4.02532      6.92756        -0.000115      0.020288      0.002403
 -----------------------------------------------------------------------------------
    total drift:                                0.000754      0.000275      0.001047


--------------------------------------------------------------------------------------------------------



  FREE ENERGIE OF THE ION-ELECTRON SYSTEM (eV)
  ---------------------------------------------------
  free  energy   TOTEN  =      -124.11242505 eV

  energy  without entropy=     -124.11184490  energy(sigma->0) =     -124.11213497
 
 d Force = 0.2390331E-04[ 0.153E-04, 0.325E-04]  d Energy = 0.3103625E-04-0.713E-05
 d Force =-0.4549442E+00[-0.455E+00,-0.455E+00]  d Ewald  =-0.5259104E+00 0.710E-01


--------------------------------------------------------------------------------------------------------


    POTLOK:  cpu time    0.7058: real time    1.9077


--------------------------------------------------------------------------------------------------------


 stress matrix after NEB project (eV)
      0.03273      0.00080     -0.00035
      0.00080      0.03487     -0.00740
     -0.00035     -0.00739     -0.00894
  FORCES: max atom, RMS     0.023250    0.014262
  FORCE total and by dimension    0.049405    0.022921
  Stress total and by dimension    0.049783    0.034874


--------------------------------------------------------------------------------------------------------


  
 reached required accuracy - stopping structural energy minimisation
 writing wavefunctions
     LOOP+:  cpu time  809.5590: real time 2246.8364
    4ORBIT:  cpu time    0.0000: real time    0.0000
 


 total charge     
 
# of ion       s       p       d       tot
------------------------------------------
    1        0.399   6.497   5.069  11.966
    2        0.399   6.497   5.069  11.966
    3        0.399   6.497   5.069  11.965
    4        0.399   6.497   5.069  11.966
    5        1.590   3.434   0.000   5.025
    6        1.590   3.435   0.000   5.025
    7        1.590   3.434   0.000   5.025
    8        1.590   3.434   0.000   5.025
    9        1.581   3.472   0.000   5.053
   10        1.581   3.472   0.000   5.053
   11        1.581   3.472   0.000   5.053
   12        1.581   3.472   0.000   5.053
--------------------------------------------------
tot         14.283  53.614  20.277  88.175
 

 total amount of memory used by VASP MPI-rank0   118496. kBytes
=======================================================================

   base      :      30000. kBytes
   nonlr-proj:       2402. kBytes
   fftplans  :       1370. kBytes
   grid      :       2865. kBytes
   one-center:         46. kBytes
   wavefun   :      81813. kBytes
 
  
  
 General timing and accounting informations for this job:
 ========================================================
  
                  Total CPU time used (sec):     9459.613
                            User time (sec):     8255.745
                          System time (sec):     1203.868
                         Elapsed time (sec):    18876.223
  
                   Maximum memory used (kb):      203380.
                   Average memory used (kb):           0.
  
                          Minor page faults:      2178743
                          Major page faults:            4
                 Voluntary context switches:        12907
