unknown system                          
           1
     2.688697    0.000010    0.000003
     0.000016    4.820719    0.000648
    -0.000002    0.001416    9.163571
   Mn   O 
   4   8
Direct configuration=     1
   0.25001214  0.05058768  0.85788433
   0.75000301  0.94946367  0.14208785
   0.74999694  0.55064186  0.64205703
   0.24998612  0.44928551  0.35792477
   0.25000058  0.70208253  0.52175077
   0.75000967  0.20196863  0.97815658
   0.24999658  0.79795356  0.02184509
   0.74998868  0.29792779  0.47827449
   0.24997290  0.15980014  0.23336640
   0.25003248  0.34022316  0.73334707
   0.74997299  0.65983019  0.26667731
   0.75002789  0.84023629  0.76662929
unknown system                          
           1
     2.637330   -0.000008    0.000001
    -0.000016    4.731833    0.000633
    -0.000007    0.001392    8.932239
   Mn   O 
   4   8
Direct configuration=     2
   0.25001220  0.05147965  0.85873982
   0.74998957  0.94848973  0.14129352
   0.75000700  0.55167238  0.64146357
   0.24998462  0.44837208  0.35848134
   0.24999497  0.69818539  0.52301227
   0.75000491  0.19801351  0.97692576
   0.25000432  0.80194930  0.02312630
   0.74999310  0.30180482  0.47695007
   0.24998214  0.15948527  0.23320484
   0.25002108  0.34039291  0.73335953
   0.74998079  0.65962022  0.26665837
   0.75002531  0.84053574  0.76678564
unknown system                          
           1
     2.669227    0.000003    0.000002
     0.000004    4.787027    0.000642
    -0.000004    0.001407    9.075885
   Mn   O 
   4   8
Direct configuration=     3
   0.25001216  0.05091538  0.85819484
   0.74999808  0.94910586  0.14179953
   0.75000062  0.55102045  0.64184162
   0.24998558  0.44894993  0.35812679
   0.24999855  0.70065079  0.52220865
   0.75000795  0.20051558  0.97770984
   0.24999939  0.79942153  0.02231013
   0.74999028  0.29935214  0.47779377
   0.24997629  0.15968446  0.23330776
   0.25002830  0.34028552  0.73335159
   0.74997585  0.65975305  0.26667044
   0.75002694  0.84034630  0.76668604
unknown system                          
           1
     2.668885    0.000003    0.000002
     0.000004    4.786436    0.000642
    -0.000004    0.001407    9.074348
   Mn   O 
   4   8
Direct configuration=     4
   0.25001216  0.05092135  0.85820058
   0.74999799  0.94909934  0.14179420
   0.75000069  0.55102735  0.64183764
   0.24998557  0.44894382  0.35813052
   0.24999851  0.70062471  0.52221712
   0.75000792  0.20048911  0.97770158
   0.24999944  0.79944827  0.02231872
   0.74999031  0.29937809  0.47778488
   0.24997635  0.15968235  0.23330668
   0.25002822  0.34028666  0.73335168
   0.74997590  0.65975164  0.26667031
   0.75002692  0.84034831  0.76668709
unknown system                          
           1
     2.671537    0.000003    0.000002
     0.000004    4.783881    0.000616
    -0.000004    0.001361    9.048740
   Mn   O 
   4   8
Direct configuration=     5
   0.25001179  0.05099429  0.85744320
   0.74999179  0.94899700  0.14255484
   0.75000601  0.55111674  0.64249469
   0.24998511  0.44888957  0.35750137
   0.24999626  0.70129807  0.52234589
   0.75000568  0.20128824  0.97761670
   0.25000239  0.79867120  0.02239452
   0.74999280  0.29869782  0.47763959
   0.24998231  0.15969279  0.23334073
   0.25002243  0.34036228  0.73336856
   0.74998246  0.65965493  0.26664857
   0.75002098  0.84033806  0.76665235
unknown system                          
           1
     2.670997    0.000003    0.000002
     0.000004    4.784402    0.000622
    -0.000004    0.001370    9.053959
   Mn   O 
   4   8
Direct configuration=     6
   0.25001187  0.05097942  0.85759800
   0.74999306  0.94901787  0.14239937
   0.75000493  0.55109851  0.64236040
   0.24998520  0.44890064  0.35762996
   0.24999672  0.70116076  0.52231957
   0.75000614  0.20112528  0.97763405
   0.25000179  0.79882966  0.02237902
   0.74999229  0.29883654  0.47766929
   0.24998110  0.15969067  0.23333377
   0.25002361  0.34034686  0.73336511
   0.74998112  0.65967465  0.26665301
   0.75002219  0.84034015  0.76665945
unknown system                          
           1
     2.673840   -0.000003    0.000002
    -0.000007    4.789136    0.000449
    -0.000005    0.001047    9.032587
   Mn   O 
   4   8
Direct configuration=     7
   0.25000745  0.05107756  0.85773147
   0.74999116  0.94891249  0.14228003
   0.75000509  0.55117822  0.64230421
   0.24998653  0.44883346  0.35769318
   0.24999588  0.70169718  0.52251539
   0.75000345  0.20168045  0.97744372
   0.25000086  0.79829304  0.02255785
   0.74999299  0.29829848  0.47746459
   0.24998681  0.15955232  0.23335009
   0.25002551  0.34051614  0.73337154
   0.74997871  0.65948733  0.26664456
   0.75002557  0.84047433  0.76664439
unknown system                          
           1
     2.673431   -0.000002    0.000002
    -0.000005    4.788456    0.000474
    -0.000005    0.001093    9.035658
   Mn   O 
   4   8
Direct configuration=     8
   0.25000808  0.05106347  0.85771224
   0.74999143  0.94892762  0.14229722
   0.75000506  0.55116678  0.64231230
   0.24998634  0.44884310  0.35768407
   0.24999600  0.70162017  0.52248718
   0.75000384  0.20160076  0.97747113
   0.25000099  0.79837007  0.02253209
   0.74999289  0.29837572  0.47749408
   0.24998599  0.15957218  0.23334774
   0.25002524  0.34049184  0.73337061
   0.74997905  0.65951422  0.26664578
   0.75002509  0.84045507  0.76664656
