  12  12   0   0
  0.9639246E+01  0.2673431E-09  0.4788456E-09  0.9035658E-09  0.5000000E-15
  1.000000000000000E-004
  CAR 
 unknown system                          
     11.06942401    -49.02136321  301      4.64974197      1.00000000
    -49.021  0.0000E+00  0.0000E+00
    -48.821  0.0000E+00  0.0000E+00
    -48.621  0.0000E+00  0.0000E+00
    -48.420  0.0000E+00  0.0000E+00
    -48.220  0.0000E+00  0.0000E+00
    -48.020  0.0000E+00  0.0000E+00
    -47.820  0.0000E+00  0.0000E+00
    -47.619  0.0000E+00  0.0000E+00
    -47.419  0.0000E+00  0.0000E+00
    -47.219  0.0000E+00  0.0000E+00
    -47.018  0.0000E+00  0.0000E+00
    -46.818  0.0000E+00  0.0000E+00
    -46.618  0.0000E+00  0.0000E+00
    -46.417  0.0000E+00  0.0000E+00
    -46.217  0.1460E+02  0.2924E+01
    -46.017  0.4812E+02  0.2346E+02
    -45.817  0.0000E+00  0.2400E+02
    -45.616  0.0000E+00  0.2400E+02
    -45.416  0.0000E+00  0.2400E+02
    -45.216  0.0000E+00  0.2400E+02
    -45.015  0.0000E+00  0.2400E+02
    -44.815  0.0000E+00  0.2400E+02
    -44.615  0.0000E+00  0.2400E+02
    -44.414  0.0000E+00  0.2400E+02
    -44.214  0.0000E+00  0.2400E+02
    -44.014  0.0000E+00  0.2400E+02
    -43.813  0.0000E+00  0.2400E+02
    -43.613  0.0000E+00  0.2400E+02
    -43.413  0.0000E+00  0.2400E+02
    -43.213  0.0000E+00  0.2400E+02
    -43.012  0.0000E+00  0.2400E+02
    -42.812  0.0000E+00  0.2400E+02
    -42.612  0.0000E+00  0.2400E+02
    -42.411  0.0000E+00  0.2400E+02
    -42.211  0.0000E+00  0.2400E+02
    -42.011  0.0000E+00  0.2400E+02
    -41.810  0.0000E+00  0.2400E+02
    -41.610  0.0000E+00  0.2400E+02
    -41.410  0.0000E+00  0.2400E+02
    -41.210  0.0000E+00  0.2400E+02
    -41.009  0.0000E+00  0.2400E+02
    -40.809  0.0000E+00  0.2400E+02
    -40.609  0.0000E+00  0.2400E+02
    -40.408  0.0000E+00  0.2400E+02
    -40.208  0.0000E+00  0.2400E+02
    -40.008  0.0000E+00  0.2400E+02
    -39.807  0.0000E+00  0.2400E+02
    -39.607  0.0000E+00  0.2400E+02
    -39.407  0.0000E+00  0.2400E+02
    -39.207  0.0000E+00  0.2400E+02
    -39.006  0.0000E+00  0.2400E+02
    -38.806  0.0000E+00  0.2400E+02
    -38.606  0.0000E+00  0.2400E+02
    -38.405  0.0000E+00  0.2400E+02
    -38.205  0.0000E+00  0.2400E+02
    -38.005  0.0000E+00  0.2400E+02
    -37.804  0.0000E+00  0.2400E+02
    -37.604  0.0000E+00  0.2400E+02
    -37.404  0.0000E+00  0.2400E+02
    -37.204  0.0000E+00  0.2400E+02
    -37.003  0.0000E+00  0.2400E+02
    -36.803  0.0000E+00  0.2400E+02
    -36.603  0.0000E+00  0.2400E+02
    -36.402  0.0000E+00  0.2400E+02
    -36.202  0.0000E+00  0.2400E+02
    -36.002  0.0000E+00  0.2400E+02
    -35.801  0.0000E+00  0.2400E+02
    -35.601  0.0000E+00  0.2400E+02
    -35.401  0.0000E+00  0.2400E+02
    -35.200  0.0000E+00  0.2400E+02
    -35.000  0.0000E+00  0.2400E+02
    -34.800  0.0000E+00  0.2400E+02
    -34.600  0.0000E+00  0.2400E+02
    -34.399  0.0000E+00  0.2400E+02
    -34.199  0.0000E+00  0.2400E+02
    -33.999  0.0000E+00  0.2400E+02
    -33.798  0.0000E+00  0.2400E+02
    -33.598  0.0000E+00  0.2400E+02
    -33.398  0.0000E+00  0.2400E+02
    -33.197  0.0000E+00  0.2400E+02
    -32.997  0.0000E+00  0.2400E+02
    -32.797  0.0000E+00  0.2400E+02
    -32.597  0.0000E+00  0.2400E+02
    -32.396  0.0000E+00  0.2400E+02
    -32.196  0.0000E+00  0.2400E+02
    -31.996  0.0000E+00  0.2400E+02
    -31.795  0.0000E+00  0.2400E+02
    -31.595  0.0000E+00  0.2400E+02
    -31.395  0.0000E+00  0.2400E+02
    -31.194  0.0000E+00  0.2400E+02
    -30.994  0.0000E+00  0.2400E+02
    -30.794  0.0000E+00  0.2400E+02
    -30.594  0.0000E+00  0.2400E+02
    -30.393  0.0000E+00  0.2400E+02
    -30.193  0.0000E+00  0.2400E+02
    -29.993  0.0000E+00  0.2400E+02
    -29.792  0.0000E+00  0.2400E+02
    -29.592  0.0000E+00  0.2400E+02
    -29.392  0.0000E+00  0.2400E+02
    -29.191  0.0000E+00  0.2400E+02
    -28.991  0.0000E+00  0.2400E+02
    -28.791  0.0000E+00  0.2400E+02
    -28.590  0.0000E+00  0.2400E+02
    -28.390  0.0000E+00  0.2400E+02
    -28.190  0.0000E+00  0.2400E+02
    -27.990  0.0000E+00  0.2400E+02
    -27.789  0.0000E+00  0.2400E+02
    -27.589  0.0000E+00  0.2400E+02
    -27.389  0.0000E+00  0.2400E+02
    -27.188  0.0000E+00  0.2400E+02
    -26.988  0.0000E+00  0.2400E+02
    -26.788  0.0000E+00  0.2400E+02
    -26.587  0.0000E+00  0.2400E+02
    -26.387  0.0000E+00  0.2400E+02
    -26.187  0.0000E+00  0.2400E+02
    -25.987  0.0000E+00  0.2400E+02
    -25.786  0.0000E+00  0.2400E+02
    -25.586  0.0000E+00  0.2400E+02
    -25.386  0.0000E+00  0.2400E+02
    -25.185  0.0000E+00  0.2400E+02
    -24.985  0.0000E+00  0.2400E+02
    -24.785  0.0000E+00  0.2400E+02
    -24.584  0.0000E+00  0.2400E+02
    -24.384  0.0000E+00  0.2400E+02
    -24.184  0.0000E+00  0.2400E+02
    -23.984  0.0000E+00  0.2400E+02
    -23.783  0.0000E+00  0.2400E+02
    -23.583  0.0000E+00  0.2400E+02
    -23.383  0.0000E+00  0.2400E+02
    -23.182  0.0000E+00  0.2400E+02
    -22.982  0.0000E+00  0.2400E+02
    -22.782  0.0000E+00  0.2400E+02
    -22.581  0.0000E+00  0.2400E+02
    -22.381  0.0000E+00  0.2400E+02
    -22.181  0.0000E+00  0.2400E+02
    -21.981  0.0000E+00  0.2400E+02
    -21.780  0.0000E+00  0.2400E+02
    -21.580  0.0000E+00  0.2400E+02
    -21.380  0.0000E+00  0.2400E+02
    -21.179  0.0000E+00  0.2400E+02
    -20.979  0.0000E+00  0.2400E+02
    -20.779  0.0000E+00  0.2400E+02
    -20.578  0.0000E+00  0.2400E+02
    -20.378  0.0000E+00  0.2400E+02
    -20.178  0.0000E+00  0.2400E+02
    -19.977  0.0000E+00  0.2400E+02
    -19.777  0.0000E+00  0.2400E+02
    -19.577  0.0000E+00  0.2400E+02
    -19.377  0.0000E+00  0.2400E+02
    -19.176  0.0000E+00  0.2400E+02
    -18.976  0.0000E+00  0.2400E+02
    -18.776  0.0000E+00  0.2400E+02
    -18.575  0.0000E+00  0.2400E+02
    -18.375  0.0000E+00  0.2400E+02
    -18.175  0.0000E+00  0.2400E+02
    -17.974  0.0000E+00  0.2400E+02
    -17.774  0.0000E+00  0.2400E+02
    -17.574  0.0000E+00  0.2400E+02
    -17.374  0.0000E+00  0.2400E+02
    -17.173  0.0000E+00  0.2400E+02
    -16.973  0.1820E-01  0.2400E+02
    -16.773  0.3786E+00  0.2416E+02
    -16.572  0.8501E+00  0.2453E+02
    -16.372  0.1901E+01  0.2519E+02
    -16.172  0.1820E+01  0.2574E+02
    -15.971  0.1495E+01  0.2626E+02
    -15.771  0.1971E+01  0.2725E+02
    -15.571  0.3160E+01  0.2872E+02
    -15.371  0.5954E+01  0.3115E+02
    -15.170  0.2223E+01  0.3286E+02
    -14.970  0.3966E+01  0.3500E+02
    -14.770  0.3593E+01  0.3599E+02
    -14.569  0.3615E+01  0.3672E+02
    -14.369  0.3139E+01  0.4000E+02
    -14.169  0.0000E+00  0.4000E+02
    -13.968  0.0000E+00  0.4000E+02
    -13.768  0.0000E+00  0.4000E+02
    -13.568  0.0000E+00  0.4000E+02
    -13.367  0.0000E+00  0.4000E+02
    -13.167  0.0000E+00  0.4000E+02
    -12.967  0.0000E+00  0.4000E+02
    -12.767  0.0000E+00  0.4000E+02
    -12.566  0.0000E+00  0.4000E+02
    -12.366  0.0000E+00  0.4000E+02
    -12.166  0.0000E+00  0.4000E+02
    -11.965  0.0000E+00  0.4000E+02
    -11.765  0.0000E+00  0.4000E+02
    -11.565  0.0000E+00  0.4000E+02
    -11.364  0.0000E+00  0.4000E+02
    -11.164  0.0000E+00  0.4000E+02
    -10.964  0.0000E+00  0.4000E+02
    -10.764  0.0000E+00  0.4000E+02
    -10.563  0.0000E+00  0.4000E+02
    -10.363  0.0000E+00  0.4000E+02
    -10.163  0.0000E+00  0.4000E+02
     -9.962  0.0000E+00  0.4000E+02
     -9.762  0.0000E+00  0.4000E+02
     -9.562  0.0000E+00  0.4000E+02
     -9.361  0.0000E+00  0.4000E+02
     -9.161  0.0000E+00  0.4000E+02
     -8.961  0.0000E+00  0.4000E+02
     -8.761  0.0000E+00  0.4000E+02
     -8.560  0.0000E+00  0.4000E+02
     -8.360  0.0000E+00  0.4000E+02
     -8.160  0.0000E+00  0.4000E+02
     -7.959  0.0000E+00  0.4000E+02
     -7.759  0.0000E+00  0.4000E+02
     -7.559  0.0000E+00  0.4000E+02
     -7.358  0.0000E+00  0.4000E+02
     -7.158  0.0000E+00  0.4000E+02
     -6.958  0.0000E+00  0.4000E+02
     -6.758  0.0000E+00  0.4000E+02
     -6.557  0.0000E+00  0.4000E+02
     -6.357  0.0000E+00  0.4000E+02
     -6.157  0.0000E+00  0.4000E+02
     -5.956  0.0000E+00  0.4000E+02
     -5.756  0.0000E+00  0.4000E+02
     -5.556  0.0000E+00  0.4000E+02
     -5.355  0.0000E+00  0.4000E+02
     -5.155  0.0000E+00  0.4000E+02
     -4.955  0.0000E+00  0.4000E+02
     -4.754  0.0000E+00  0.4000E+02
     -4.554  0.0000E+00  0.4000E+02
     -4.354  0.0000E+00  0.4000E+02
     -4.154  0.0000E+00  0.4000E+02
     -3.953  0.0000E+00  0.4000E+02
     -3.753  0.0000E+00  0.4000E+02
     -3.553  0.3327E-13  0.4000E+02
     -3.352  0.1511E+00  0.4005E+02
     -3.152  0.6034E+00  0.4028E+02
     -2.952  0.6361E+00  0.4057E+02
     -2.751  0.1579E+01  0.4164E+02
     -2.551  0.4814E+01  0.4359E+02
     -2.351  0.2818E+01  0.4578E+02
     -2.151  0.3494E+01  0.4796E+02
     -1.950  0.6024E+01  0.5045E+02
     -1.750  0.2907E+01  0.5342E+02
     -1.550  0.3013E+01  0.5462E+02
     -1.349  0.3553E+01  0.5634E+02
     -1.149  0.2634E+01  0.5737E+02
     -0.949  0.2362E+01  0.5839E+02
     -0.748  0.4229E+01  0.5996E+02
     -0.548  0.3937E+01  0.6201E+02
     -0.348  0.2497E+01  0.6332E+02
     -0.148  0.1870E+01  0.6460E+02
      0.053  0.2271E+01  0.6604E+02
      0.253  0.2730E+01  0.6784E+02
      0.453  0.5275E+01  0.7004E+02
      0.654  0.4754E+01  0.7218E+02
      0.854  0.3672E+01  0.7455E+02
      1.054  0.4745E+01  0.7691E+02
      1.255  0.2090E+01  0.7845E+02
      1.455  0.3118E+01  0.7969E+02
      1.655  0.3004E+01  0.8116E+02
      1.856  0.2526E+01  0.8241E+02
      2.056  0.2509E+01  0.8372E+02
      2.256  0.2019E+01  0.8472E+02
      2.456  0.3270E+01  0.8644E+02
      2.657  0.1372E+01  0.8720E+02
      2.857  0.4919E+00  0.8782E+02
      3.057  0.1513E+00  0.8798E+02
      3.258  0.0000E+00  0.8800E+02
      3.458  0.2089E-07  0.8800E+02
      3.658  0.1209E+01  0.8826E+02
      3.859  0.5470E+01  0.9041E+02
      4.059  0.6074E+01  0.9366E+02
      4.259  0.5495E+01  0.9624E+02
      4.459  0.2219E+01  0.9822E+02
      4.660  0.5009E+01  0.1001E+03
      4.860  0.8021E+01  0.1029E+03
      5.060  0.2565E+01  0.1050E+03
      5.261  0.2923E+01  0.1066E+03
      5.461  0.3035E+01  0.1085E+03
      5.661  0.2981E+01  0.1102E+03
      5.862  0.1588E+01  0.1115E+03
      6.062  0.1135E+00  0.1120E+03
      6.262  0.0000E+00  0.1120E+03
      6.462  0.0000E+00  0.1120E+03
      6.663  0.2034E+00  0.1120E+03
      6.863  0.4812E+00  0.1122E+03
      7.063  0.4462E+01  0.1141E+03
      7.264  0.2497E+01  0.1156E+03
      7.464  0.3145E+01  0.1172E+03
      7.664  0.1417E+01  0.1181E+03
      7.865  0.2089E+01  0.1189E+03
      8.065  0.1278E+01  0.1198E+03
      8.265  0.3028E+00  0.1199E+03
      8.465  0.0000E+00  0.1200E+03
      8.666  0.0000E+00  0.1200E+03
      8.866  0.0000E+00  0.1200E+03
      9.066  0.0000E+00  0.1200E+03
      9.267  0.0000E+00  0.1200E+03
      9.467  0.0000E+00  0.1200E+03
      9.667  0.0000E+00  0.1200E+03
      9.868  0.0000E+00  0.1200E+03
     10.068  0.0000E+00  0.1200E+03
     10.268  0.0000E+00  0.1200E+03
     10.469  0.0000E+00  0.1200E+03
     10.669  0.0000E+00  0.1200E+03
     10.869  0.0000E+00  0.1200E+03
     11.069  0.0000E+00  0.1200E+03
