 vasp.5.4.4.18Apr17-6-g9f103f2a35 (build Nov 08 2022 17:27:33) complex          
  
 executed on             LinuxIFC date 2022.11.23  02:54:23
 running on   16 total cores
 distrk:  each k-point on   16 cores,    1 groups
 distr:  one band on NCORES_PER_BAND=   4 cores,    4 groups


--------------------------------------------------------------------------------------------------------


 INCAR:
 POTCAR:    PAW_PBE Mn_pv 02Aug2007               
 POTCAR:    PAW_PBE O 08Apr2002                   
 POTCAR:    PAW_PBE Mn_pv 02Aug2007               
   VRHFIN =Mn: 3p4s3d                                                           
   LEXCH  = PE                                                                  
   EATOM  =  2025.2664 eV,  148.8529 Ry                                         
                                                                                
   TITEL  = PAW_PBE Mn_pv 02Aug2007                                             
   LULTRA =        F    use ultrasoft PP ?                                      
   IUNSCR =        1    unscreen: 0-lin 1-nonlin 2-no                           
   RPACOR =    2.080    partial core radius                                     
   POMASS =   54.938; ZVAL   =   13.000    mass and valenz                      
   RCORE  =    2.300    outmost cutoff radius                                   
   RWIGS  =    2.500; RWIGS  =    1.323    wigner-seitz radius (au A)           
   ENMAX  =  269.864; ENMIN  =  202.398 eV                                      
   ICORE  =        3    local potential                                         
   LCOR   =        T    correct aug charges                                     
   LPAW   =        T    paw PP                                                  
   EAUG   =  569.085                                                            
   DEXC   =    0.000                                                            
   RMAX   =    2.343    core radius for proj-oper                               
   RAUG   =    1.300    factor for augmentation sphere                          
   RDEP   =    2.338    radius for radial grids                                 
   RDEPT  =    1.798    core radius for aug-charge                              
                                                                                
   Atomic configuration                                                         
    8 entries                                                                   
     n  l   j            E        occ.                                          
     1  0  0.50     -6424.8287   2.0000                                         
     2  0  0.50      -739.1154   2.0000                                         
     2  1  1.50      -625.3949   6.0000                                         
     3  0  0.50       -81.6100   2.0000                                         
     3  1  1.50       -50.4667   6.0000                                         
     3  2  2.50        -3.3745   6.0000                                         
     4  0  0.50        -4.1331   1.0000                                         
     4  3  2.50        -1.3606   0.0000                                         
   Description                                                                  
     l       E           TYP  RCUT    TYP  RCUT                                 
     1    -50.4666628     23  2.000                                             
     1     -1.3605826     23  2.000                                             
     2     -3.3744729     23  2.300                                             
     2     -4.7350555     23  2.300                                             
     0     -4.1331431     23  2.300                                             
     0      7.6656591     23  2.300                                             
     3      9.5240782     23  2.300                                             
  local pseudopotential read in
  partial core-charges read in
  partial kinetic energy density read in
  atomic valenz-charges read in
  non local Contribution for L=           1  read in
    real space projection operators read in
  non local Contribution for L=           1  read in
    real space projection operators read in
  non local Contribution for L=           2  read in
    real space projection operators read in
  non local Contribution for L=           2  read in
    real space projection operators read in
  non local Contribution for L=           0  read in
    real space projection operators read in
  non local Contribution for L=           0  read in
    real space projection operators read in
    PAW grid and wavefunctions read in
 
   number of l-projection  operators is LMAX  =           6
   number of lm-projection operators is LMMAX =          18
 
 POTCAR:    PAW_PBE O 08Apr2002                   
   VRHFIN =O: s2p4                                                              
   LEXCH  = PE                                                                  
   EATOM  =   432.3788 eV,   31.7789 Ry                                         
                                                                                
   TITEL  = PAW_PBE O 08Apr2002                                                 
   LULTRA =        F    use ultrasoft PP ?                                      
   IUNSCR =        1    unscreen: 0-lin 1-nonlin 2-no                           
   RPACOR =    1.200    partial core radius                                     
   POMASS =   16.000; ZVAL   =    6.000    mass and valenz                      
   RCORE  =    1.520    outmost cutoff radius                                   
   RWIGS  =    1.550; RWIGS  =    0.820    wigner-seitz radius (au A)           
   ENMAX  =  400.000; ENMIN  =  300.000 eV                                      
   ICORE  =        2    local potential                                         
   LCOR   =        T    correct aug charges                                     
   LPAW   =        T    paw PP                                                  
   EAUG   =  605.392                                                            
   DEXC   =    0.000                                                            
   RMAX   =    1.553    core radius for proj-oper                               
   RAUG   =    1.300    factor for augmentation sphere                          
   RDEP   =    1.550    radius for radial grids                                 
   RDEPT  =    1.329    core radius for aug-charge                              
                                                                                
   Atomic configuration                                                         
    4 entries                                                                   
     n  l   j            E        occ.                                          
     1  0  0.50      -514.6923   2.0000                                         
     2  0  0.50       -23.9615   2.0000                                         
     2  1  0.50        -9.0305   4.0000                                         
     3  2  1.50        -9.5241   0.0000                                         
   Description                                                                  
     l       E           TYP  RCUT    TYP  RCUT                                 
     0    -23.9615318     23  1.200                                             
     0     -9.5240782     23  1.200                                             
     1     -9.0304911     23  1.520                                             
     1      8.1634956     23  1.520                                             
     2     -9.5240782      7  1.500                                             
  local pseudopotential read in
  partial core-charges read in
  partial kinetic energy density read in
  kinetic energy density of atom read in
  atomic valenz-charges read in
  non local Contribution for L=           0  read in
    real space projection operators read in
  non local Contribution for L=           0  read in
    real space projection operators read in
  non local Contribution for L=           1  read in
    real space projection operators read in
  non local Contribution for L=           1  read in
    real space projection operators read in
    PAW grid and wavefunctions read in
 
   number of l-projection  operators is LMAX  =           4
   number of lm-projection operators is LMMAX =           8
 
  PAW_PBE Mn_pv 02Aug2007               :
 energy of atom  1       EATOM=-2025.2664
 kinetic energy error for atom=    0.0058 (will be added to EATOM!!)
  PAW_PBE O 08Apr2002                   :
 energy of atom  2       EATOM= -432.3788
 kinetic energy error for atom=    0.0208 (will be added to EATOM!!)
 
 
 POSCAR: Mn4 O8                                  
  positions in direct lattice
  velocities in cartesian coordinates

 METAGGA = R2SCA    LMAXTAU =  6    LMIXTAU =  T

 exchange correlation table for  LEXCH =        8
   RHO(1)=    0.500       N(1)  =     2000
   RHO(2)=  100.500       N(2)  =     4000

 VTST: version 3.2, (02/03/18)

 CHAIN: initializing optimizer
 
 OPT: Using VASP Conjugate-Gradient optimizer
 CHAIN: Read ICHAIN            0
 
 POSCAR: Mn4 O8                                  
  positions in direct lattice
  velocities in cartesian coordinates
 


--------------------------------------------------------------------------------------------------------


 ion  position               nearest neighbor table
   1  0.250  0.051  0.858-  10 1.78   6 1.86   6 1.86  12 1.87  12 1.87   7 1.92   2 2.94   2 2.94

   2  0.750  0.949  0.142-  11 1.78   7 1.86   7 1.86   9 1.87   9 1.87   6 1.92   1 2.94   1 2.94

   3  0.750  0.551  0.642-  12 1.78   5 1.86   5 1.86  10 1.87  10 1.87   8 1.92   4 2.94   4 2.94

   4  0.250  0.449  0.358-   9 1.78   8 1.86   8 1.86  11 1.87  11 1.87   5 1.92   3 2.94   3 2.94

   5  0.250  0.702  0.522-   3 1.86   3 1.86   4 1.92
   6  0.750  0.202  0.977-   1 1.86   1 1.86   2 1.92
   7  0.250  0.798  0.023-   2 1.86   2 1.86   1 1.92
   8  0.750  0.298  0.477-   4 1.86   4 1.86   3 1.92
   9  0.250  0.160  0.233-   4 1.78   2 1.87   2 1.87
  10  0.250  0.340  0.733-   1 1.78   3 1.87   3 1.87
  11  0.750  0.660  0.267-   2 1.78   4 1.87   4 1.87
  12  0.750  0.840  0.767-   3 1.78   1 1.87   1 1.87
 

IMPORTANT INFORMATION: All symmetrisations will be switched off!
NOSYMM: (Re-)initialisation of all symmetry stuff for point group C_1.

 
 

Automatic generation of k-mesh.
 generate k-points for:   11    6    4
Space group operators:
 irot       det(A)        alpha          n_x          n_y          n_z        tau_x        tau_y        tau_z
    1     1.000000     0.000001     1.000000     0.000000     0.000000     0.000000     0.000000     0.000000
 
 Subroutine IBZKPT returns following result:
 ===========================================
 
 Found    134 irreducible k-points:
 
 Following reciprocal coordinates:
            Coordinates               Weight
  0.000000  0.000000  0.000000      1.000000
  0.090909 -0.000000  0.000000      2.000000
  0.181818 -0.000000  0.000000      2.000000
  0.272727  0.000000  0.000000      2.000000
  0.363636 -0.000000  0.000000      2.000000
  0.454545 -0.000000  0.000000      2.000000
  0.000000  0.166667  0.000000      2.000000
  0.090909  0.166667  0.000000      2.000000
  0.181818  0.166667 -0.000000      2.000000
  0.272727  0.166667  0.000000      2.000000
  0.363636  0.166667  0.000000      2.000000
  0.454545  0.166667  0.000000      2.000000
 -0.454545  0.166667  0.000000      2.000000
 -0.363636  0.166667 -0.000000      2.000000
 -0.272727  0.166667 -0.000000      2.000000
 -0.181818  0.166667  0.000000      2.000000
 -0.090909  0.166667  0.000000      2.000000
  0.000000  0.333333  0.000000      2.000000
  0.090909  0.333333  0.000000      2.000000
  0.181818  0.333333  0.000000      2.000000
  0.272727  0.333333  0.000000      2.000000
  0.363636  0.333333 -0.000000      2.000000
  0.454545  0.333333  0.000000      2.000000
 -0.454545  0.333333  0.000000      2.000000
 -0.363636  0.333333  0.000000      2.000000
 -0.272727  0.333333  0.000000      2.000000
 -0.181818  0.333333  0.000000      2.000000
 -0.090909  0.333333 -0.000000      2.000000
 -0.000000  0.500000 -0.000000      1.000000
  0.090909  0.500000  0.000000      2.000000
  0.181818  0.500000  0.000000      2.000000
  0.272727  0.500000  0.000000      2.000000
  0.363636  0.500000 -0.000000      2.000000
  0.454545  0.500000  0.000000      2.000000
  0.000000  0.000000  0.250000      2.000000
  0.090909  0.000000  0.250000      2.000000
  0.181818  0.000000  0.250000      2.000000
  0.272727  0.000000  0.250000      2.000000
  0.363636  0.000000  0.250000      2.000000
  0.454545  0.000000  0.250000      2.000000
 -0.454545  0.000000  0.250000      2.000000
 -0.363636  0.000000  0.250000      2.000000
 -0.272727  0.000000  0.250000      2.000000
 -0.181818  0.000000  0.250000      2.000000
 -0.090909  0.000000  0.250000      2.000000
 -0.000000  0.166667  0.250000      2.000000
  0.090909  0.166667  0.250000      2.000000
  0.181818  0.166667  0.250000      2.000000
  0.272727  0.166667  0.250000      2.000000
  0.363636  0.166667  0.250000      2.000000
  0.454545  0.166667  0.250000      2.000000
 -0.454545  0.166667  0.250000      2.000000
 -0.363636  0.166667  0.250000      2.000000
 -0.272727  0.166667  0.250000      2.000000
 -0.181818  0.166667  0.250000      2.000000
 -0.090909  0.166667  0.250000      2.000000
 -0.000000  0.333333  0.250000      2.000000
  0.090909  0.333333  0.250000      2.000000
  0.181818  0.333333  0.250000      2.000000
  0.272727  0.333333  0.250000      2.000000
  0.363636  0.333333  0.250000      2.000000
  0.454545  0.333333  0.250000      2.000000
 -0.454545  0.333333  0.250000      2.000000
 -0.363636  0.333333  0.250000      2.000000
 -0.272727  0.333333  0.250000      2.000000
 -0.181818  0.333333  0.250000      2.000000
 -0.090909  0.333333  0.250000      2.000000
  0.000000  0.500000  0.250000      2.000000
  0.090909  0.500000  0.250000      2.000000
  0.181818  0.500000  0.250000      2.000000
  0.272727  0.500000  0.250000      2.000000
  0.363636  0.500000  0.250000      2.000000
  0.454545  0.500000  0.250000      2.000000
 -0.454545  0.500000  0.250000      2.000000
 -0.363636  0.500000  0.250000      2.000000
 -0.272727  0.500000  0.250000      2.000000
 -0.181818  0.500000  0.250000      2.000000
 -0.090909  0.500000  0.250000      2.000000
 -0.000000 -0.333333  0.250000      2.000000
  0.090909 -0.333333  0.250000      2.000000
  0.181818 -0.333333  0.250000      2.000000
  0.272727 -0.333333  0.250000      2.000000
  0.363636 -0.333333  0.250000      2.000000
  0.454545 -0.333333  0.250000      2.000000
 -0.454545 -0.333333  0.250000      2.000000
 -0.363636 -0.333333  0.250000      2.000000
 -0.272727 -0.333333  0.250000      2.000000
 -0.181818 -0.333333  0.250000      2.000000
 -0.090909 -0.333333  0.250000      2.000000
 -0.000000 -0.166667  0.250000      2.000000
  0.090909 -0.166667  0.250000      2.000000
  0.181818 -0.166667  0.250000      2.000000
  0.272727 -0.166667  0.250000      2.000000
  0.363636 -0.166667  0.250000      2.000000
  0.454545 -0.166667  0.250000      2.000000
 -0.454545 -0.166667  0.250000      2.000000
 -0.363636 -0.166667  0.250000      2.000000
 -0.272727 -0.166667  0.250000      2.000000
 -0.181818 -0.166667  0.250000      2.000000
 -0.090909 -0.166667  0.250000      2.000000
  0.000000  0.000000  0.500000      1.000000
  0.090909  0.000000  0.500000      2.000000
  0.181818  0.000000  0.500000      2.000000
  0.272727  0.000000  0.500000      2.000000
  0.363636  0.000000  0.500000      2.000000
  0.454545  0.000000  0.500000      2.000000
 -0.000000  0.166667  0.500000      2.000000
  0.090909  0.166667  0.500000      2.000000
  0.181818  0.166667  0.500000      2.000000
  0.272727  0.166667  0.500000      2.000000
  0.363636  0.166667  0.500000      2.000000
  0.454545  0.166667  0.500000      2.000000
 -0.454545  0.166667  0.500000      2.000000
 -0.363636  0.166667  0.500000      2.000000
 -0.272727  0.166667  0.500000      2.000000
 -0.181818  0.166667  0.500000      2.000000
 -0.090909  0.166667  0.500000      2.000000
 -0.000000  0.333333  0.500000      2.000000
  0.090909  0.333333  0.500000      2.000000
  0.181818  0.333333  0.500000      2.000000
  0.272727  0.333333  0.500000      2.000000
  0.363636  0.333333  0.500000      2.000000
  0.454545  0.333333  0.500000      2.000000
 -0.454545  0.333333  0.500000      2.000000
 -0.363636  0.333333  0.500000      2.000000
 -0.272727  0.333333  0.500000      2.000000
 -0.181818  0.333333  0.500000      2.000000
 -0.090909  0.333333  0.500000      2.000000
 -0.000000  0.500000  0.500000      1.000000
  0.090909  0.500000  0.500000      2.000000
  0.181818  0.500000  0.500000      2.000000
  0.272727  0.500000  0.500000      2.000000
  0.363636  0.500000  0.500000      2.000000
  0.454545  0.500000  0.500000      2.000000
 
 Following cartesian coordinates:
            Coordinates               Weight
  0.000000  0.000000  0.000000      1.000000
  0.034005  0.000000  0.000000      2.000000
  0.068009  0.000000  0.000000      2.000000
  0.102014  0.000000  0.000000      2.000000
  0.136019  0.000000  0.000000      2.000000
  0.170023  0.000000  0.000000      2.000000
  0.000000  0.034806 -0.000004      2.000000
  0.034005  0.034806 -0.000004      2.000000
  0.068009  0.034806 -0.000004      2.000000
  0.102014  0.034806 -0.000004      2.000000
  0.136019  0.034806 -0.000004      2.000000
  0.170023  0.034806 -0.000004      2.000000
 -0.170023  0.034806 -0.000004      2.000000
 -0.136019  0.034806 -0.000004      2.000000
 -0.102014  0.034806 -0.000004      2.000000
 -0.068009  0.034806 -0.000004      2.000000
 -0.034005  0.034806 -0.000004      2.000000
  0.000000  0.069612 -0.000008      2.000000
  0.034005  0.069612 -0.000008      2.000000
  0.068009  0.069612 -0.000008      2.000000
  0.102014  0.069612 -0.000008      2.000000
  0.136019  0.069612 -0.000008      2.000000
  0.170023  0.069612 -0.000008      2.000000
 -0.170023  0.069612 -0.000009      2.000000
 -0.136019  0.069612 -0.000008      2.000000
 -0.102014  0.069612 -0.000008      2.000000
 -0.068009  0.069612 -0.000008      2.000000
 -0.034005  0.069612 -0.000008      2.000000
  0.000000  0.104418 -0.000013      1.000000
  0.034005  0.104418 -0.000013      2.000000
  0.068009  0.104418 -0.000013      2.000000
  0.102014  0.104418 -0.000013      2.000000
  0.136019  0.104418 -0.000013      2.000000
  0.170023  0.104418 -0.000013      2.000000
 -0.000000 -0.000003  0.027668      2.000000
  0.034005 -0.000003  0.027668      2.000000
  0.068009 -0.000003  0.027668      2.000000
  0.102014 -0.000003  0.027668      2.000000
  0.136019 -0.000003  0.027668      2.000000
  0.170023 -0.000003  0.027668      2.000000
 -0.170023 -0.000003  0.027668      2.000000
 -0.136019 -0.000003  0.027668      2.000000
 -0.102014 -0.000003  0.027668      2.000000
 -0.068009 -0.000003  0.027668      2.000000
 -0.034005 -0.000003  0.027668      2.000000
  0.000000  0.034803  0.027664      2.000000
  0.034005  0.034803  0.027664      2.000000
  0.068009  0.034803  0.027664      2.000000
  0.102014  0.034803  0.027664      2.000000
  0.136019  0.034803  0.027664      2.000000
  0.170023  0.034803  0.027664      2.000000
 -0.170023  0.034803  0.027664      2.000000
 -0.136019  0.034803  0.027664      2.000000
 -0.102014  0.034803  0.027664      2.000000
 -0.068009  0.034803  0.027664      2.000000
 -0.034005  0.034803  0.027664      2.000000
  0.000000  0.069609  0.027660      2.000000
  0.034005  0.069609  0.027660      2.000000
  0.068009  0.069609  0.027660      2.000000
  0.102014  0.069609  0.027660      2.000000
  0.136019  0.069609  0.027660      2.000000
  0.170023  0.069609  0.027660      2.000000
 -0.170023  0.069609  0.027660      2.000000
 -0.136019  0.069609  0.027660      2.000000
 -0.102014  0.069609  0.027660      2.000000
 -0.068009  0.069609  0.027660      2.000000
 -0.034005  0.069609  0.027660      2.000000
  0.000000  0.104415  0.027656      2.000000
  0.034005  0.104415  0.027656      2.000000
  0.068009  0.104415  0.027656      2.000000
  0.102014  0.104415  0.027656      2.000000
  0.136019  0.104415  0.027656      2.000000
  0.170023  0.104415  0.027656      2.000000
 -0.170023  0.104415  0.027655      2.000000
 -0.136019  0.104415  0.027655      2.000000
 -0.102014  0.104415  0.027655      2.000000
 -0.068009  0.104415  0.027655      2.000000
 -0.034005  0.104415  0.027656      2.000000
 -0.000000 -0.069615  0.027677      2.000000
  0.034005 -0.069615  0.027677      2.000000
  0.068009 -0.069615  0.027677      2.000000
  0.102014 -0.069614  0.027677      2.000000
  0.136019 -0.069614  0.027677      2.000000
  0.170023 -0.069614  0.027677      2.000000
 -0.170023 -0.069615  0.027676      2.000000
 -0.136019 -0.069615  0.027677      2.000000
 -0.102014 -0.069615  0.027677      2.000000
 -0.068009 -0.069615  0.027677      2.000000
 -0.034005 -0.069615  0.027677      2.000000
 -0.000000 -0.034809  0.027672      2.000000
  0.034005 -0.034809  0.027672      2.000000
  0.068009 -0.034809  0.027672      2.000000
  0.102014 -0.034809  0.027672      2.000000
  0.136019 -0.034809  0.027672      2.000000
  0.170023 -0.034808  0.027672      2.000000
 -0.170023 -0.034809  0.027672      2.000000
 -0.136019 -0.034809  0.027672      2.000000
 -0.102014 -0.034809  0.027672      2.000000
 -0.068009 -0.034809  0.027672      2.000000
 -0.034005 -0.034809  0.027672      2.000000
 -0.000000 -0.000005  0.055336      1.000000
  0.034005 -0.000005  0.055336      2.000000
  0.068009 -0.000005  0.055336      2.000000
  0.102014 -0.000005  0.055336      2.000000
  0.136019 -0.000005  0.055336      2.000000
  0.170023 -0.000005  0.055336      2.000000
 -0.000000  0.034800  0.055332      2.000000
  0.034005  0.034800  0.055332      2.000000
  0.068009  0.034801  0.055332      2.000000
  0.102014  0.034801  0.055332      2.000000
  0.136019  0.034801  0.055332      2.000000
  0.170023  0.034801  0.055332      2.000000
 -0.170023  0.034800  0.055332      2.000000
 -0.136019  0.034800  0.055332      2.000000
 -0.102014  0.034800  0.055332      2.000000
 -0.068009  0.034800  0.055332      2.000000
 -0.034005  0.034800  0.055332      2.000000
  0.000000  0.069606  0.055328      2.000000
  0.034005  0.069606  0.055328      2.000000
  0.068009  0.069606  0.055328      2.000000
  0.102014  0.069606  0.055328      2.000000
  0.136019  0.069607  0.055328      2.000000
  0.170023  0.069607  0.055328      2.000000
 -0.170023  0.069606  0.055328      2.000000
 -0.136019  0.069606  0.055328      2.000000
 -0.102014  0.069606  0.055328      2.000000
 -0.068009  0.069606  0.055328      2.000000
 -0.034005  0.069606  0.055328      2.000000
  0.000000  0.104412  0.055324      1.000000
  0.034005  0.104412  0.055324      2.000000
  0.068009  0.104412  0.055324      2.000000
  0.102014  0.104412  0.055324      2.000000
  0.136019  0.104412  0.055324      2.000000
  0.170023  0.104412  0.055324      2.000000
 


--------------------------------------------------------------------------------------------------------




 Dimension of arrays:
   k-points           NKPTS =    134   k-points in BZ     NKDIM =    134   number of bands    NBANDS=     60
   number of dos      NEDOS =    301   number of ions     NIONS =     12
   non local maximal  LDIM  =      6   non local SUM 2l+1 LMDIM =     18
   total plane-waves  NPLWV =  50400
   max r-space proj   IRMAX =      1   max aug-charges    IRDMAX=  13419
   dimension x,y,z NGX =    20 NGY =   36 NGZ =   70
   dimension x,y,z NGXF=    40 NGYF=   72 NGZF=  140
   support grid    NGXF=    40 NGYF=   72 NGZF=  140
   ions per type =               4   8
   NGX,Y,Z   is equivalent  to a cutoff of  12.44, 12.50, 12.88 a.u.
   NGXF,Y,Z  is equivalent  to a cutoff of  24.87, 25.00, 25.76 a.u.

 SYSTEM =  unknown system                          
 POSCAR =  Mn4 O8                                  

 Startparameter for this run:
   NWRITE =      2    write-flag & timer
   PREC   = accura    normal or accurate (medium, high low for compatibility)
   ISTART =      1    job   : 0-new  1-cont  2-samecut
   ICHARG =      0    charge: 1-file 2-atom 10-const
   ISPIN  =      1    spin polarized calculation?
   LNONCOLLINEAR =      F non collinear calculations
   LSORBIT =      F    spin-orbit coupling
   INIWAV =      1    electr: 0-lowe 1-rand  2-diag
   LASPH  =      T    aspherical Exc in radial PAW
   METAGGA=      F    non-selfconsistent MetaGGA calc.

 Electronic Relaxation 1
   ENCUT  =  520.0 eV  38.22 Ry    6.18 a.u.   4.97  8.90 16.80*2*pi/ulx,y,z
   ENINI  =  520.0     initial cutoff
   ENAUG  = 1040.0 eV  augmentation charge cutoff
   NELM   =    200;   NELMIN=  2; NELMDL=  0     # of ELM steps 
   EDIFF  = 0.1E-05   stopping-criterion for ELM
   LREAL  =      F    real-space projection
   NLSPLINE    = F    spline interpolate recip. space projectors
   LCOMPAT=      F    compatible to vasp.4.4
   GGA_COMPAT  = T    GGA compatible to vasp.4.4-vasp.4.6
   LMAXPAW     = -100 max onsite density
   LMAXMIX     =    4 max onsite mixed and CHGCAR
   VOSKOWN=      0    Vosko Wilk Nusair interpolation
   ROPT   =    0.00000   0.00000
 Ionic relaxation
   EDIFFG = -.3E-01   stopping-criterion for IOM
   NSW    =      0    number of steps for IOM
   NBLOCK =      1;   KBLOCK =      1    inner block; outer block 
   IBRION =     -1    ionic relax: 0-MD 1-quasi-New 2-CG
   NFREE  =      1    steps in history (QN), initial steepest desc. (CG)
   ISIF   =      3    stress and relaxation
   IWAVPR =     10    prediction:  0-non 1-charg 2-wave 3-comb
   ISYM   =      0    0-nonsym 1-usesym 2-fastsym
   LCORR  =      T    Harris-Foulkes like correction to forces

   POTIM  = 0.5000    time-step for ionic-motion
   TEIN   =    0.0    initial temperature
   TEBEG  =    0.0;   TEEND  =   0.0 temperature during run
   SMASS  =  -3.00    Nose mass-parameter (am)
   estimated Nose-frequenzy (Omega)   =  0.10E-29 period in steps =****** mass=  -0.163E-27a.u.
   SCALEE = 1.0000    scale energy and forces
   NPACO  =    256;   APACO  = 16.0  distance and # of slots for P.C.
   PSTRESS=    0.0 pullay stress

  Mass of Ions in am
   POMASS =  54.94 16.00
  Ionic Valenz
   ZVAL   =  13.00  6.00
  Atomic Wigner-Seitz radii
   RWIGS  =  -1.00 -1.00
  virtual crystal weights 
   VCA    =   1.00  1.00
   NELECT =     100.0000    total number of electrons
   NUPDOWN=      -1.0000    fix difference up-down

 DOS related values:
   EMIN   =  10.00;   EMAX   =-10.00  energy-range for DOS
   EFERMI =   0.00
   ISMEAR =     0;   SIGMA  =   0.01  broadening in eV -4-tet -1-fermi 0-gaus

 Electronic relaxation 2 (details)
   IALGO  =     58    algorithm
   LDIAG  =      T    sub-space diagonalisation (order eigenvalues)
   LSUBROT=      F    optimize rotation matrix (better conditioning)
   TURBO    =      0    0=normal 1=particle mesh
   IRESTART =      0    0=no restart 2=restart with 2 vectors
   NREBOOT  =      0    no. of reboots
   NMIN     =      0    reboot dimension
   EREF     =   0.00    reference energy to select bands
   IMIX   =      4    mixing-type and parameters
     AMIX     =   0.40;   BMIX     =  1.00
     AMIX_MAG =   1.60;   BMIX_MAG =  1.00
     AMIN     =   0.10
     WC   =   100.;   INIMIX=   1;  MIXPRE=   1;  MAXMIX= -45

 Intra band minimization:
   WEIMIN = 0.0000     energy-eigenvalue tresh-hold
   EBREAK =  0.42E-08  absolut break condition
   DEPER  =   0.30     relativ break condition  

   TIME   =   0.40     timestep for ELM

  volume/ion in A,a.u.               =       9.64        65.05
  Fermi-wavevector in a.u.,A,eV,Ry     =   1.559553  2.947127 33.092154  2.432205
  Thomas-Fermi vector in A             =   2.662894
 
 Write flags
   LWAVE        =      T    write WAVECAR
   LDOWNSAMPLE  =      F    k-point downsampling of WAVECAR
   LCHARG       =      T    write CHGCAR
   LVTOT        =      F    write LOCPOT, total local potential
   LVHAR        =      T    write LOCPOT, Hartree potential only
   LELF         =      T    write electronic localiz. function (ELF)
   LORBIT       =      0    0 simple, 1 ext, 2 COOP (PROOUT), +10 PAW based schemes


 Dipole corrections
   LMONO  =      F    monopole corrections only (constant potential shift)
   LDIPOL =      F    correct potential (dipole corrections)
   IDIPOL =      0    1-x, 2-y, 3-z, 4-all directions 
   EPSILON=  1.0000000 bulk dielectric constant

 Exchange correlation treatment:
   GGA     =    PE    GGA type
   LEXCH   =     8    internal setting for exchange type
   VOSKOWN=      0    Vosko Wilk Nusair interpolation
   LHFCALC =     F    Hartree Fock is set to
   LHFONE  =     F    Hartree Fock one center treatment
   AEXX    =    0.0000 exact exchange contribution

 Linear response parameters
   LEPSILON=     F    determine dielectric tensor
   LRPA    =     F    only Hartree local field effects (RPA)
   LNABLA  =     F    use nabla operator in PAW spheres
   LVEL    =     F    velocity operator in full k-point grid
   LINTERFAST=   F  fast interpolation
   KINTER  =     0    interpolate to denser k-point grid
   CSHIFT  =0.1000    complex shift for real part using Kramers Kronig
   OMEGAMAX=  -1.0    maximum frequency
   DEG_THRESHOLD= 0.2000000E-02 threshold for treating states as degnerate
   RTIME   =   -0.100 relaxation time in fs
  (WPLASMAI=    0.000 imaginary part of plasma frequency in eV, 0.658/RTIME)
   DFIELD  = 0.0000000 0.0000000 0.0000000 field for delta impulse in time
 
 Orbital magnetization related:
   ORBITALMAG=     F  switch on orbital magnetization
   LCHIMAG   =     F  perturbation theory with respect to B field
   DQ        =  0.001000  dq finite difference perturbation B field
   LLRAUG    =     F  two centre corrections for induced B field



--------------------------------------------------------------------------------------------------------


 Static calculation
 charge density and potential will be updated during run
 non-spin polarized calculation
 Conjugate gradient for all bands (Freysoldt, et al. PRB 79, 241103 (2009))
 preconditioned conjugated gradient                                        
 perform sub-space diagonalisation
    before iterative eigenvector-optimisation
 modified Broyden-mixing scheme, WC =      100.0
 initial mixing is a Kerker type mixing with AMIX =  0.4000 and BMIX =      1.0000
 Hartree-type preconditioning will be used
 using additional bands           10
 reciprocal scheme for non local part
 use partial core corrections
 no Harris-corrections to forces 
 use gradient corrections 
 use of overlap-Matrix (Vanderbilt PP)
 Gauss-broadening in eV      SIGMA  =   0.01


--------------------------------------------------------------------------------------------------------


  energy-cutoff  :      520.00
  volume of cell :      115.67
      direct lattice vectors                 reciprocal lattice vectors
     2.673431339 -0.000002142  0.000001932     0.374051125  0.000000401  0.000000193
    -0.000005137  4.788456075  0.000473653     0.000000167  0.208835582 -0.000025269
    -0.000004668  0.001093314  9.035657830    -0.000000080 -0.000010947  0.110672630

  length of vectors
     2.673431339  4.788456099  9.035657896     0.374051125  0.208835584  0.110672630


 
 old parameters found on file WAVECAR:
  energy-cutoff  :      520.00
  volume of cell :      118.77
      direct lattice vectors                 reciprocal lattice vectors
     2.688697425  0.000009566  0.000002704     0.371927310 -0.000001222  0.000000088
     0.000015837  4.820718547  0.000648111    -0.000000738  0.207437960 -0.000032051
    -0.000002157  0.001415851  9.163570660    -0.000000110 -0.000014671  0.109127769

  length of vectors

 
 k-points in units of 2pi/SCALE and weight: read from INCAR                         
   0.00000000  0.00000000  0.00000000       0.004
   0.03400465  0.00000004  0.00000002       0.008
   0.06800930  0.00000007  0.00000004       0.008
   0.10201394  0.00000011  0.00000005       0.008
   0.13601859  0.00000015  0.00000007       0.008
   0.17002324  0.00000018  0.00000009       0.008
   0.00000003  0.03480593 -0.00000421       0.008
   0.03400468  0.03480597 -0.00000419       0.008
   0.06800932  0.03480600 -0.00000418       0.008
   0.10201397  0.03480604 -0.00000416       0.008
   0.13601862  0.03480608 -0.00000414       0.008
   0.17002327  0.03480611 -0.00000412       0.008
  -0.17002321  0.03480575 -0.00000430       0.008
  -0.13601856  0.03480578 -0.00000428       0.008
  -0.10201392  0.03480582 -0.00000426       0.008
  -0.06800927  0.03480586 -0.00000425       0.008
  -0.03400462  0.03480589 -0.00000423       0.008
   0.00000006  0.06961186 -0.00000842       0.008
   0.03400470  0.06961190 -0.00000841       0.008
   0.06800935  0.06961193 -0.00000839       0.008
   0.10201400  0.06961197 -0.00000837       0.008
   0.13601865  0.06961201 -0.00000835       0.008
   0.17002329  0.06961204 -0.00000834       0.008
  -0.17002318  0.06961168 -0.00000851       0.008
  -0.13601854  0.06961171 -0.00000849       0.008
  -0.10201389  0.06961175 -0.00000848       0.008
  -0.06800924  0.06961179 -0.00000846       0.008
  -0.03400459  0.06961182 -0.00000844       0.008
   0.00000008  0.10441779 -0.00001263       0.004
   0.03400473  0.10441783 -0.00001262       0.008
   0.06800938  0.10441786 -0.00001260       0.008
   0.10201403  0.10441790 -0.00001258       0.008
   0.13601867  0.10441794 -0.00001256       0.008
   0.17002332  0.10441797 -0.00001255       0.008
  -0.00000002 -0.00000274  0.02766816       0.008
   0.03400463 -0.00000270  0.02766817       0.008
   0.06800928 -0.00000266  0.02766819       0.008
   0.10201392 -0.00000263  0.02766821       0.008
   0.13601857 -0.00000259  0.02766823       0.008
   0.17002322 -0.00000255  0.02766825       0.008
  -0.17002326 -0.00000292  0.02766807       0.008
  -0.13601861 -0.00000288  0.02766809       0.008
  -0.10201396 -0.00000285  0.02766810       0.008
  -0.06800932 -0.00000281  0.02766812       0.008
  -0.03400467 -0.00000277  0.02766814       0.008
   0.00000001  0.03480319  0.02766395       0.008
   0.03400466  0.03480323  0.02766396       0.008
   0.06800930  0.03480327  0.02766398       0.008
   0.10201395  0.03480330  0.02766400       0.008
   0.13601860  0.03480334  0.02766402       0.008
   0.17002325  0.03480338  0.02766403       0.008
  -0.17002323  0.03480301  0.02766386       0.008
  -0.13601858  0.03480305  0.02766388       0.008
  -0.10201394  0.03480308  0.02766389       0.008
  -0.06800929  0.03480312  0.02766391       0.008
  -0.03400464  0.03480316  0.02766393       0.008
   0.00000004  0.06960912  0.02765973       0.008
   0.03400468  0.06960916  0.02765975       0.008
   0.06800933  0.06960920  0.02765977       0.008
   0.10201398  0.06960923  0.02765979       0.008
   0.13601863  0.06960927  0.02765980       0.008
   0.17002327  0.06960931  0.02765982       0.008
  -0.17002320  0.06960894  0.02765965       0.008
  -0.13601856  0.06960898  0.02765966       0.008
  -0.10201391  0.06960901  0.02765968       0.008
  -0.06800926  0.06960905  0.02765970       0.008
  -0.03400461  0.06960909  0.02765972       0.008
   0.00000006  0.10441505  0.02765552       0.008
   0.03400471  0.10441509  0.02765554       0.008
   0.06800936  0.10441513  0.02765556       0.008
   0.10201401  0.10441516  0.02765558       0.008
   0.13601865  0.10441520  0.02765559       0.008
   0.17002330  0.10441524  0.02765561       0.008
  -0.17002317  0.10441487  0.02765544       0.008
  -0.13601853  0.10441491  0.02765545       0.008
  -0.10201388  0.10441494  0.02765547       0.008
  -0.06800923  0.10441498  0.02765549       0.008
  -0.03400458  0.10441502  0.02765551       0.008
  -0.00000008 -0.06961460  0.02767658       0.008
   0.03400457 -0.06961456  0.02767660       0.008
   0.06800922 -0.06961452  0.02767662       0.008
   0.10201387 -0.06961449  0.02767663       0.008
   0.13601852 -0.06961445  0.02767665       0.008
   0.17002316 -0.06961442  0.02767667       0.008
  -0.17002331 -0.06961478  0.02767649       0.008
  -0.13601867 -0.06961474  0.02767651       0.008
  -0.10201402 -0.06961471  0.02767653       0.008
  -0.06800937 -0.06961467  0.02767655       0.008
  -0.03400472 -0.06961463  0.02767656       0.008
  -0.00000005 -0.03480867  0.02767237       0.008
   0.03400460 -0.03480863  0.02767239       0.008
   0.06800925 -0.03480859  0.02767240       0.008
   0.10201390 -0.03480856  0.02767242       0.008
   0.13601854 -0.03480852  0.02767244       0.008
   0.17002319 -0.03480848  0.02767246       0.008
  -0.17002329 -0.03480885  0.02767228       0.008
  -0.13601864 -0.03480881  0.02767230       0.008
  -0.10201399 -0.03480878  0.02767232       0.008
  -0.06800934 -0.03480874  0.02767233       0.008
  -0.03400470 -0.03480870  0.02767235       0.008
  -0.00000004 -0.00000547  0.05533631       0.004
   0.03400461 -0.00000544  0.05533633       0.008
   0.06800926 -0.00000540  0.05533635       0.008
   0.10201390 -0.00000536  0.05533637       0.008
   0.13601855 -0.00000533  0.05533639       0.008
   0.17002320 -0.00000529  0.05533640       0.008
  -0.00000001  0.03480046  0.05533210       0.008
   0.03400464  0.03480049  0.05533212       0.008
   0.06800928  0.03480053  0.05533214       0.008
   0.10201393  0.03480057  0.05533216       0.008
   0.13601858  0.03480060  0.05533217       0.008
   0.17002323  0.03480064  0.05533219       0.008
  -0.17002325  0.03480027  0.05533202       0.008
  -0.13601860  0.03480031  0.05533203       0.008
  -0.10201396  0.03480035  0.05533205       0.008
  -0.06800931  0.03480038  0.05533207       0.008
  -0.03400466  0.03480042  0.05533209       0.008
   0.00000002  0.06960639  0.05532789       0.008
   0.03400466  0.06960642  0.05532791       0.008
   0.06800931  0.06960646  0.05532793       0.008
   0.10201396  0.06960650  0.05532794       0.008
   0.13601861  0.06960653  0.05532796       0.008
   0.17002325  0.06960657  0.05532798       0.008
  -0.17002322  0.06960620  0.05532780       0.008
  -0.13601858  0.06960624  0.05532782       0.008
  -0.10201393  0.06960628  0.05532784       0.008
  -0.06800928  0.06960631  0.05532786       0.008
  -0.03400463  0.06960635  0.05532787       0.008
   0.00000004  0.10441232  0.05532368       0.004
   0.03400469  0.10441235  0.05532370       0.008
   0.06800934  0.10441239  0.05532372       0.008
   0.10201399  0.10441243  0.05532373       0.008
   0.13601863  0.10441246  0.05532375       0.008
   0.17002328  0.10441250  0.05532377       0.008
 
 k-points in reciprocal lattice and weights: read from INCAR                         
   0.00000000  0.00000000  0.00000000       0.004
   0.09090909 -0.00000000  0.00000000       0.008
   0.18181818 -0.00000000  0.00000000       0.008
   0.27272727  0.00000000  0.00000000       0.008
   0.36363636 -0.00000000  0.00000000       0.008
   0.45454545 -0.00000000  0.00000000       0.008
   0.00000000  0.16666667  0.00000000       0.008
   0.09090909  0.16666667  0.00000000       0.008
   0.18181818  0.16666667 -0.00000000       0.008
   0.27272727  0.16666667  0.00000000       0.008
   0.36363636  0.16666667  0.00000000       0.008
   0.45454545  0.16666667  0.00000000       0.008
  -0.45454545  0.16666667  0.00000000       0.008
  -0.36363636  0.16666667 -0.00000000       0.008
  -0.27272727  0.16666667 -0.00000000       0.008
  -0.18181818  0.16666667  0.00000000       0.008
  -0.09090909  0.16666667  0.00000000       0.008
   0.00000000  0.33333333  0.00000000       0.008
   0.09090909  0.33333333  0.00000000       0.008
   0.18181818  0.33333333  0.00000000       0.008
   0.27272727  0.33333333  0.00000000       0.008
   0.36363636  0.33333333 -0.00000000       0.008
   0.45454545  0.33333333  0.00000000       0.008
  -0.45454545  0.33333333  0.00000000       0.008
  -0.36363636  0.33333333  0.00000000       0.008
  -0.27272727  0.33333333  0.00000000       0.008
  -0.18181818  0.33333333  0.00000000       0.008
  -0.09090909  0.33333333 -0.00000000       0.008
  -0.00000000  0.50000000 -0.00000000       0.004
   0.09090909  0.50000000  0.00000000       0.008
   0.18181818  0.50000000  0.00000000       0.008
   0.27272727  0.50000000  0.00000000       0.008
   0.36363636  0.50000000 -0.00000000       0.008
   0.45454545  0.50000000  0.00000000       0.008
   0.00000000  0.00000000  0.25000000       0.008
   0.09090909  0.00000000  0.25000000       0.008
   0.18181818  0.00000000  0.25000000       0.008
   0.27272727  0.00000000  0.25000000       0.008
   0.36363636  0.00000000  0.25000000       0.008
   0.45454545  0.00000000  0.25000000       0.008
  -0.45454545  0.00000000  0.25000000       0.008
  -0.36363636  0.00000000  0.25000000       0.008
  -0.27272727  0.00000000  0.25000000       0.008
  -0.18181818  0.00000000  0.25000000       0.008
  -0.09090909  0.00000000  0.25000000       0.008
  -0.00000000  0.16666667  0.25000000       0.008
   0.09090909  0.16666667  0.25000000       0.008
   0.18181818  0.16666667  0.25000000       0.008
   0.27272727  0.16666667  0.25000000       0.008
   0.36363636  0.16666667  0.25000000       0.008
   0.45454545  0.16666667  0.25000000       0.008
  -0.45454545  0.16666667  0.25000000       0.008
  -0.36363636  0.16666667  0.25000000       0.008
  -0.27272727  0.16666667  0.25000000       0.008
  -0.18181818  0.16666667  0.25000000       0.008
  -0.09090909  0.16666667  0.25000000       0.008
  -0.00000000  0.33333333  0.25000000       0.008
   0.09090909  0.33333333  0.25000000       0.008
   0.18181818  0.33333333  0.25000000       0.008
   0.27272727  0.33333333  0.25000000       0.008
   0.36363636  0.33333333  0.25000000       0.008
   0.45454545  0.33333333  0.25000000       0.008
  -0.45454545  0.33333333  0.25000000       0.008
  -0.36363636  0.33333333  0.25000000       0.008
  -0.27272727  0.33333333  0.25000000       0.008
  -0.18181818  0.33333333  0.25000000       0.008
  -0.09090909  0.33333333  0.25000000       0.008
   0.00000000  0.50000000  0.25000000       0.008
   0.09090909  0.50000000  0.25000000       0.008
   0.18181818  0.50000000  0.25000000       0.008
   0.27272727  0.50000000  0.25000000       0.008
   0.36363636  0.50000000  0.25000000       0.008
   0.45454545  0.50000000  0.25000000       0.008
  -0.45454545  0.50000000  0.25000000       0.008
  -0.36363636  0.50000000  0.25000000       0.008
  -0.27272727  0.50000000  0.25000000       0.008
  -0.18181818  0.50000000  0.25000000       0.008
  -0.09090909  0.50000000  0.25000000       0.008
  -0.00000000 -0.33333333  0.25000000       0.008
   0.09090909 -0.33333333  0.25000000       0.008
   0.18181818 -0.33333333  0.25000000       0.008
   0.27272727 -0.33333333  0.25000000       0.008
   0.36363636 -0.33333333  0.25000000       0.008
   0.45454545 -0.33333333  0.25000000       0.008
  -0.45454545 -0.33333333  0.25000000       0.008
  -0.36363636 -0.33333333  0.25000000       0.008
  -0.27272727 -0.33333333  0.25000000       0.008
  -0.18181818 -0.33333333  0.25000000       0.008
  -0.09090909 -0.33333333  0.25000000       0.008
  -0.00000000 -0.16666667  0.25000000       0.008
   0.09090909 -0.16666667  0.25000000       0.008
   0.18181818 -0.16666667  0.25000000       0.008
   0.27272727 -0.16666667  0.25000000       0.008
   0.36363636 -0.16666667  0.25000000       0.008
   0.45454545 -0.16666667  0.25000000       0.008
  -0.45454545 -0.16666667  0.25000000       0.008
  -0.36363636 -0.16666667  0.25000000       0.008
  -0.27272727 -0.16666667  0.25000000       0.008
  -0.18181818 -0.16666667  0.25000000       0.008
  -0.09090909 -0.16666667  0.25000000       0.008
   0.00000000  0.00000000  0.50000000       0.004
   0.09090909  0.00000000  0.50000000       0.008
   0.18181818  0.00000000  0.50000000       0.008
   0.27272727  0.00000000  0.50000000       0.008
   0.36363636  0.00000000  0.50000000       0.008
   0.45454545  0.00000000  0.50000000       0.008
  -0.00000000  0.16666667  0.50000000       0.008
   0.09090909  0.16666667  0.50000000       0.008
   0.18181818  0.16666667  0.50000000       0.008
   0.27272727  0.16666667  0.50000000       0.008
   0.36363636  0.16666667  0.50000000       0.008
   0.45454545  0.16666667  0.50000000       0.008
  -0.45454545  0.16666667  0.50000000       0.008
  -0.36363636  0.16666667  0.50000000       0.008
  -0.27272727  0.16666667  0.50000000       0.008
  -0.18181818  0.16666667  0.50000000       0.008
  -0.09090909  0.16666667  0.50000000       0.008
  -0.00000000  0.33333333  0.50000000       0.008
   0.09090909  0.33333333  0.50000000       0.008
   0.18181818  0.33333333  0.50000000       0.008
   0.27272727  0.33333333  0.50000000       0.008
   0.36363636  0.33333333  0.50000000       0.008
   0.45454545  0.33333333  0.50000000       0.008
  -0.45454545  0.33333333  0.50000000       0.008
  -0.36363636  0.33333333  0.50000000       0.008
  -0.27272727  0.33333333  0.50000000       0.008
  -0.18181818  0.33333333  0.50000000       0.008
  -0.09090909  0.33333333  0.50000000       0.008
  -0.00000000  0.50000000  0.50000000       0.004
   0.09090909  0.50000000  0.50000000       0.008
   0.18181818  0.50000000  0.50000000       0.008
   0.27272727  0.50000000  0.50000000       0.008
   0.36363636  0.50000000  0.50000000       0.008
   0.45454545  0.50000000  0.50000000       0.008
 
 position of ions in fractional coordinates (direct lattice) 
   0.25000808  0.05106347  0.85771224
   0.74999143  0.94892762  0.14229722
   0.75000506  0.55116678  0.64231230
   0.24998634  0.44884310  0.35768407
   0.24999600  0.70162017  0.52248718
   0.75000384  0.20160076  0.97747113
   0.25000099  0.79837007  0.02253209
   0.74999289  0.29837572  0.47749408
   0.24998599  0.15957218  0.23334774
   0.25002524  0.34049184  0.73337061
   0.74997905  0.65951422  0.26664578
   0.75002509  0.84045507  0.76664656
 
 position of ions in cartesian coordinates  (Angst):
   0.66837517  0.24545241  7.75001901
   2.00504505  4.54405218  1.28619990
   2.00508121  2.63993855  5.80397669
   0.66831733  2.14965601  3.23212395
   0.66834110  3.36024807  4.72134823
   2.00507816  0.96642345  8.83219160
   0.66835629  3.82298411  0.20397089
   2.00505073  1.42927949  4.31461588
   0.66831848  0.76435895  2.10852636
   0.66842013  1.63123151  6.62664768
   2.00501287  3.15834481  2.40963383
   2.00513267  4.02531874  6.92755550
 


--------------------------------------------------------------------------------------------------------


 k-point  1 :   0.0000 0.0000 0.0000  plane waves:    3101
 k-point  2 :   0.0909-0.0000 0.0000  plane waves:    3100
 k-point  3 :   0.1818-0.0000 0.0000  plane waves:    3100
 k-point  4 :   0.2727 0.0000 0.0000  plane waves:    3094
 k-point  5 :   0.3636-0.0000 0.0000  plane waves:    3118
 k-point  6 :   0.4545-0.0000 0.0000  plane waves:    3132
 k-point  7 :   0.0000 0.1667 0.0000  plane waves:    3082
 k-point  8 :   0.0909 0.1667 0.0000  plane waves:    3104
 k-point  9 :   0.1818 0.1667-0.0000  plane waves:    3102
 k-point 10 :   0.2727 0.1667 0.0000  plane waves:    3107
 k-point 11 :   0.3636 0.1667 0.0000  plane waves:    3119
 k-point 12 :   0.4545 0.1667 0.0000  plane waves:    3131
 k-point 13 :  -0.4545 0.1667 0.0000  plane waves:    3131
 k-point 14 :  -0.3636 0.1667-0.0000  plane waves:    3119
 k-point 15 :  -0.2727 0.1667-0.0000  plane waves:    3107
 k-point 16 :  -0.1818 0.1667 0.0000  plane waves:    3102
 k-point 17 :  -0.0909 0.1667 0.0000  plane waves:    3104
 k-point 18 :   0.0000 0.3333 0.0000  plane waves:    3086
 k-point 19 :   0.0909 0.3333 0.0000  plane waves:    3104
 k-point 20 :   0.1818 0.3333 0.0000  plane waves:    3112
 k-point 21 :   0.2727 0.3333 0.0000  plane waves:    3132
 k-point 22 :   0.3636 0.3333-0.0000  plane waves:    3142
 k-point 23 :   0.4545 0.3333 0.0000  plane waves:    3123
 k-point 24 :  -0.4545 0.3333 0.0000  plane waves:    3123
 k-point 25 :  -0.3636 0.3333 0.0000  plane waves:    3142
 k-point 26 :  -0.2727 0.3333 0.0000  plane waves:    3132
 k-point 27 :  -0.1818 0.3333 0.0000  plane waves:    3112
 k-point 28 :  -0.0909 0.3333-0.0000  plane waves:    3104
 k-point 29 :  -0.0000 0.5000-0.0000  plane waves:    3104
 k-point 30 :   0.0909 0.5000 0.0000  plane waves:    3106
 k-point 31 :   0.1818 0.5000 0.0000  plane waves:    3132
 k-point 32 :   0.2727 0.5000 0.0000  plane waves:    3130
 k-point 33 :   0.3636 0.5000-0.0000  plane waves:    3128
 k-point 34 :   0.4545 0.5000 0.0000  plane waves:    3130
 k-point 35 :   0.0000 0.0000 0.2500  plane waves:    3098
 k-point 36 :   0.0909 0.0000 0.2500  plane waves:    3095
 k-point 37 :   0.1818 0.0000 0.2500  plane waves:    3100
 k-point 38 :   0.2727 0.0000 0.2500  plane waves:    3114
 k-point 39 :   0.3636 0.0000 0.2500  plane waves:    3129
 k-point 40 :   0.4545 0.0000 0.2500  plane waves:    3127
 k-point 41 :  -0.4545 0.0000 0.2500  plane waves:    3127
 k-point 42 :  -0.3636 0.0000 0.2500  plane waves:    3129
 k-point 43 :  -0.2727 0.0000 0.2500  plane waves:    3114
 k-point 44 :  -0.1818 0.0000 0.2500  plane waves:    3100
 k-point 45 :  -0.0909 0.0000 0.2500  plane waves:    3095
 k-point 46 :  -0.0000 0.1667 0.2500  plane waves:    3084
 k-point 47 :   0.0909 0.1667 0.2500  plane waves:    3094
 k-point 48 :   0.1818 0.1667 0.2500  plane waves:    3104
 k-point 49 :   0.2727 0.1667 0.2500  plane waves:    3115
 k-point 50 :   0.3636 0.1667 0.2500  plane waves:    3123
 k-point 51 :   0.4545 0.1667 0.2500  plane waves:    3129
 k-point 52 :  -0.4545 0.1667 0.2500  plane waves:    3129
 k-point 53 :  -0.3636 0.1667 0.2500  plane waves:    3123
 k-point 54 :  -0.2727 0.1667 0.2500  plane waves:    3115
 k-point 55 :  -0.1818 0.1667 0.2500  plane waves:    3104
 k-point 56 :  -0.0909 0.1667 0.2500  plane waves:    3094
 k-point 57 :  -0.0000 0.3333 0.2500  plane waves:    3085
 k-point 58 :   0.0909 0.3333 0.2500  plane waves:    3103
 k-point 59 :   0.1818 0.3333 0.2500  plane waves:    3116
 k-point 60 :   0.2727 0.3333 0.2500  plane waves:    3118
 k-point 61 :   0.3636 0.3333 0.2500  plane waves:    3126
 k-point 62 :   0.4545 0.3333 0.2500  plane waves:    3134
 k-point 63 :  -0.4545 0.3333 0.2500  plane waves:    3134
 k-point 64 :  -0.3636 0.3333 0.2500  plane waves:    3126
 k-point 65 :  -0.2727 0.3333 0.2500  plane waves:    3118
 k-point 66 :  -0.1818 0.3333 0.2500  plane waves:    3116
 k-point 67 :  -0.0909 0.3333 0.2500  plane waves:    3103
 k-point 68 :   0.0000 0.5000 0.2500  plane waves:    3100
 k-point 69 :   0.0909 0.5000 0.2500  plane waves:    3106
 k-point 70 :   0.1818 0.5000 0.2500  plane waves:    3115
 k-point 71 :   0.2727 0.5000 0.2500  plane waves:    3126
 k-point 72 :   0.3636 0.5000 0.2500  plane waves:    3128
 k-point 73 :   0.4545 0.5000 0.2500  plane waves:    3129
 k-point 74 :  -0.4545 0.5000 0.2500  plane waves:    3129
 k-point 75 :  -0.3636 0.5000 0.2500  plane waves:    3128
 k-point 76 :  -0.2727 0.5000 0.2500  plane waves:    3126
 k-point 77 :  -0.1818 0.5000 0.2500  plane waves:    3115
 k-point 78 :  -0.0909 0.5000 0.2500  plane waves:    3106
 k-point 79 :  -0.0000-0.3333 0.2500  plane waves:    3085
 k-point 80 :   0.0909-0.3333 0.2500  plane waves:    3103
 k-point 81 :   0.1818-0.3333 0.2500  plane waves:    3115
 k-point 82 :   0.2727-0.3333 0.2500  plane waves:    3118
 k-point 83 :   0.3636-0.3333 0.2500  plane waves:    3127
 k-point 84 :   0.4545-0.3333 0.2500  plane waves:    3133
 k-point 85 :  -0.4545-0.3333 0.2500  plane waves:    3133
 k-point 86 :  -0.3636-0.3333 0.2500  plane waves:    3127
 k-point 87 :  -0.2727-0.3333 0.2500  plane waves:    3118
 k-point 88 :  -0.1818-0.3333 0.2500  plane waves:    3115
 k-point 89 :  -0.0909-0.3333 0.2500  plane waves:    3103
 k-point 90 :  -0.0000-0.1667 0.2500  plane waves:    3086
 k-point 91 :   0.0909-0.1667 0.2500  plane waves:    3094
 k-point 92 :   0.1818-0.1667 0.2500  plane waves:    3103
 k-point 93 :   0.2727-0.1667 0.2500  plane waves:    3115
 k-point 94 :   0.3636-0.1667 0.2500  plane waves:    3123
 k-point 95 :   0.4545-0.1667 0.2500  plane waves:    3129
 k-point 96 :  -0.4545-0.1667 0.2500  plane waves:    3129
 k-point 97 :  -0.3636-0.1667 0.2500  plane waves:    3123
 k-point 98 :  -0.2727-0.1667 0.2500  plane waves:    3115
 k-point 99 :  -0.1818-0.1667 0.2500  plane waves:    3103
 k-point ** :  -0.0909-0.1667 0.2500  plane waves:    3094
 k-point ** :   0.0000 0.0000 0.5000  plane waves:    3070
 k-point ** :   0.0909 0.0000 0.5000  plane waves:    3094
 k-point ** :   0.1818 0.0000 0.5000  plane waves:    3104
 k-point ** :   0.2727 0.0000 0.5000  plane waves:    3122
 k-point ** :   0.3636 0.0000 0.5000  plane waves:    3138
 k-point ** :   0.4545 0.0000 0.5000  plane waves:    3118
 k-point ** :  -0.0000 0.1667 0.5000  plane waves:    3068
 k-point ** :   0.0909 0.1667 0.5000  plane waves:    3100
 k-point ** :   0.1818 0.1667 0.5000  plane waves:    3106
 k-point ** :   0.2727 0.1667 0.5000  plane waves:    3126
 k-point ** :   0.3636 0.1667 0.5000  plane waves:    3140
 k-point ** :   0.4545 0.1667 0.5000  plane waves:    3139
 k-point ** :  -0.4545 0.1667 0.5000  plane waves:    3139
 k-point ** :  -0.3636 0.1667 0.5000  plane waves:    3140
 k-point ** :  -0.2727 0.1667 0.5000  plane waves:    3126
 k-point ** :  -0.1818 0.1667 0.5000  plane waves:    3106
 k-point ** :  -0.0909 0.1667 0.5000  plane waves:    3100
 k-point ** :  -0.0000 0.3333 0.5000  plane waves:    3100
 k-point ** :   0.0909 0.3333 0.5000  plane waves:    3099
 k-point ** :   0.1818 0.3333 0.5000  plane waves:    3115
 k-point ** :   0.2727 0.3333 0.5000  plane waves:    3127
 k-point ** :   0.3636 0.3333 0.5000  plane waves:    3128
 k-point ** :   0.4545 0.3333 0.5000  plane waves:    3141
 k-point ** :  -0.4545 0.3333 0.5000  plane waves:    3141
 k-point ** :  -0.3636 0.3333 0.5000  plane waves:    3128
 k-point ** :  -0.2727 0.3333 0.5000  plane waves:    3127
 k-point ** :  -0.1818 0.3333 0.5000  plane waves:    3115
 k-point ** :  -0.0909 0.3333 0.5000  plane waves:    3099
 k-point ** :  -0.0000 0.5000 0.5000  plane waves:    3076
 k-point ** :   0.0909 0.5000 0.5000  plane waves:    3084
 k-point ** :   0.1818 0.5000 0.5000  plane waves:    3128
 k-point ** :   0.2727 0.5000 0.5000  plane waves:    3116
 k-point ** :   0.3636 0.5000 0.5000  plane waves:    3124
 k-point ** :   0.4545 0.5000 0.5000  plane waves:    3132

 maximum and minimum number of plane-waves per node :       794      746

 maximum number of plane-waves:      3142
 maximum index in each direction: 
   IXMAX=    5   IYMAX=    9   IZMAX=   16
   IXMIN=   -5   IYMIN=   -9   IZMIN=  -17


 parallel 3D FFT for wavefunctions:
    minimum data exchange during FFTs selected (reduces bandwidth)
 parallel 3D FFT for charge:
    minimum data exchange during FFTs selected (reduces bandwidth)


 total amount of memory used by VASP MPI-rank0   145424. kBytes
=======================================================================

   base      :      30000. kBytes
   nonl-proj :      30872. kBytes
   fftplans  :       1370. kBytes
   grid      :       2865. kBytes
   one-center:         46. kBytes
   wavefun   :      80271. kBytes
 
     INWAV:  cpu time    4.2138: real time    8.6570
 Broyden mixing: mesh for mixing (old mesh)
   NGX =  9   NGY = 17   NGZ = 33
  (NGX  = 40   NGY  = 72   NGZ  =140)
  gives a total of   5049 points

 charge density for first step will be calculated from the start-wavefunctions


--------------------------------------------------------------------------------------------------------


 Maximum index for augmentation-charges         1033 (set IRDMAX)


--------------------------------------------------------------------------------------------------------


 initial charge from wavefunction
 First call to EWALD:  gamma=   0.364
 Maximum number of real-space cells 5x 3x 2
 Maximum number of reciprocal cells 2x 3x 5

    FEWALD:  cpu time    0.0025: real time    0.0054


--------------------------------------- Iteration      1(   1)  ---------------------------------------


    POTLOK:  cpu time    0.1685: real time    0.3375
    SETDIJ:  cpu time    1.1837: real time    2.3815
    TRIAL :  cpu time   34.3546: real time   71.8241
    CORREC:  cpu time   13.5008: real time   29.2949
    CHARGE:  cpu time    3.9169: real time    8.5602
    --------------------------------------------
      LOOP:  cpu time   53.1342: real time  112.4276

 eigenvalue-minimisations  :     0
 total energy-change (2. order) :-0.1241019E+03  (-0.1751841E-05)
 number of electron      99.9999968 magnetization 
 augmentation part       33.7005375 magnetization 

 Free energy of the ion-electron system (eV)
  ---------------------------------------------------
  alpha Z        PSCENC =       480.94162395
  Ewald energy   TEWEN  =     -7502.72245163
  -Hartree energ DENC   =     -3668.07534744
  -exchange      EXHF   =         0.00000000
  -V(xc)+E(xc)   XCENC  =       589.57991149
  PAW double counting   =     13081.16920307   -13348.42280969
  entropy T*S    EENTRO =        -0.00057990
  eigenvalues    EBANDS =     -1316.47779055
  atomic energy  EATOM  =     11559.90638050
  ---------------------------------------------------
  free energy    TOTEN  =      -124.10186018 eV

  energy without entropy =     -124.10128027  energy(sigma->0) =     -124.10157022


--------------------------------------------------------------------------------------------------------




--------------------------------------- Iteration      1(   2)  ---------------------------------------


    POTLOK:  cpu time    0.1222: real time    0.2308
    SETDIJ:  cpu time    1.3150: real time    2.6480
    TRIAL :  cpu time   22.6855: real time   76.3642
    CORREC:  cpu time   12.7344: real time   38.3617
    CHARGE:  cpu time    2.7761: real time    8.8450
    --------------------------------------------
      LOOP:  cpu time   39.6364: real time  126.4609

 eigenvalue-minimisations  :     0
 total energy-change (2. order) :-0.1826935E-05  (-0.8703455E-05)
 number of electron      99.9999968 magnetization 
 augmentation part       33.7011033 magnetization 

 Free energy of the ion-electron system (eV)
  ---------------------------------------------------
  alpha Z        PSCENC =       480.94162395
  Ewald energy   TEWEN  =     -7502.72245163
  -Hartree energ DENC   =     -3668.07744572
  -exchange      EXHF   =         0.00000000
  -V(xc)+E(xc)   XCENC  =       589.57995526
  PAW double counting   =     13081.17844447   -13348.43236036
  entropy T*S    EENTRO =        -0.00057996
  eigenvalues    EBANDS =     -1316.47542856
  atomic energy  EATOM  =     11559.90638050
  ---------------------------------------------------
  free energy    TOTEN  =      -124.10186200 eV

  energy without entropy =     -124.10128204  energy(sigma->0) =     -124.10157202


--------------------------------------------------------------------------------------------------------




--------------------------------------- Iteration      1(   3)  ---------------------------------------


    POTLOK:  cpu time    0.1068: real time    0.3346
    SETDIJ:  cpu time    0.9503: real time    2.8591
    TRIAL :  cpu time   31.7083: real time   77.5023
    CORREC:  cpu time   13.5395: real time   33.3124
    CHARGE:  cpu time    4.2840: real time   10.2101
    --------------------------------------------
      LOOP:  cpu time   50.5901: real time  124.2293

 eigenvalue-minimisations  :     0
 total energy-change (2. order) :-0.5877424E-05  (-0.1221232E-05)
 number of electron      99.9999968 magnetization 
 augmentation part       33.7009839 magnetization 

 Free energy of the ion-electron system (eV)
  ---------------------------------------------------
  alpha Z        PSCENC =       480.94162395
  Ewald energy   TEWEN  =     -7502.72245163
  -Hartree energ DENC   =     -3668.12420746
  -exchange      EXHF   =         0.00000000
  -V(xc)+E(xc)   XCENC  =       589.58085609
  PAW double counting   =     13081.44096740   -13348.70152338
  entropy T*S    EENTRO =        -0.00057999
  eigenvalues    EBANDS =     -1316.42293340
  atomic energy  EATOM  =     11559.90638050
  ---------------------------------------------------
  free energy    TOTEN  =      -124.10186788 eV

  energy without entropy =     -124.10128789  energy(sigma->0) =     -124.10157789


--------------------------------------------------------------------------------------------------------




--------------------------------------- Iteration      1(   4)  ---------------------------------------


    POTLOK:  cpu time    0.1204: real time    0.2730
    SETDIJ:  cpu time    0.9643: real time    2.3289
    TRIAL :  cpu time   21.4634: real time   76.3134
    CORREC:  cpu time   16.2483: real time   38.1666
    EDDIAG:  cpu time    8.7540: real time   17.9267
    CHARGE:  cpu time    5.7235: real time   11.5250
    --------------------------------------------
      LOOP:  cpu time   53.2806: real time  146.5408

 eigenvalue-minimisations  :     0
 total energy-change (2. order) :-0.7860344E-06  (-0.9324474E-06)
 number of electron      99.9999968 magnetization 
 augmentation part       33.7007857 magnetization 

 Free energy of the ion-electron system (eV)
  ---------------------------------------------------
  alpha Z        PSCENC =       480.94162395
  Ewald energy   TEWEN  =     -7502.72245163
  -Hartree energ DENC   =     -3668.11067789
  -exchange      EXHF   =         0.00000000
  -V(xc)+E(xc)   XCENC  =       589.58049824
  PAW double counting   =     13081.45779173   -13348.71616631
  entropy T*S    EENTRO =        -0.00058003
  eigenvalues    EBANDS =     -1316.43828727
  atomic energy  EATOM  =     11559.90638050
  ---------------------------------------------------
  free energy    TOTEN  =      -124.10186867 eV

  energy without entropy =     -124.10128864  energy(sigma->0) =     -124.10157865


--------------------------------------------------------------------------------------------------------


  average scaling for gradient   0.9093


 average (electrostatic) potential at core
  the test charge radii are     0.9577  0.7215
  (the norm of the test charge is              1.0000)
       1 -76.3989       2 -76.3905       3 -76.3848       4 -76.3866       5 -74.4525
       6 -74.4630       7 -74.4617       8 -74.4525       9 -75.2697      10 -75.2695
      11 -75.2684      12 -75.2722
 
 
 
 E-fermi :   4.6511     XC(G=0): -12.4186     alpha+bet :-12.3045


 k-point     1 :       0.0000    0.0000    0.0000
  band No.  band energies     occupation 
      1     -46.2063      2.00000
      2     -46.2001      2.00000
      3     -46.1878      2.00000
      4     -46.1818      2.00000
      5     -46.0942      2.00000
      6     -46.0859      2.00000
      7     -46.0678      2.00000
      8     -46.0563      2.00000
      9     -46.0531      2.00000
     10     -46.0438      2.00000
     11     -46.0330      2.00000
     12     -46.0203      2.00000
     13     -16.9726      2.00000
     14     -16.2899      2.00000
     15     -16.0553      2.00000
     16     -15.4980      2.00000
     17     -15.3318      2.00000
     18     -15.0027      2.00000
     19     -14.4577      2.00000
     20     -14.4193      2.00000
     21      -3.5028      2.00000
     22      -2.7660      2.00000
     23      -2.5419      2.00000
     24      -2.4054      2.00000
     25      -1.8108      2.00000
     26      -1.6757      2.00000
     27      -1.5027      2.00000
     28      -0.8149      2.00000
     29      -0.7725      2.00000
     30      -0.7603      2.00000
     31      -0.7381      2.00000
     32      -0.4966      2.00000
     33      -0.1868      2.00000
     34       0.3704      2.00000
     35       0.6320      2.00000
     36       0.8081      2.00000
     37       1.2889      2.00000
     38       1.4398      2.00000
     39       1.7616      2.00000
     40       2.0848      2.00000
     41       2.3509      2.00000
     42       2.5569      2.00000
     43       2.5820      2.00000
     44       2.8306      2.00000
     45       3.5413      2.00000
     46       3.8125      2.00000
     47       3.9302      2.00000
     48       4.0361      2.00000
     49       4.0597      2.00000
     50       4.2598      2.00000
     51       4.2945      2.00000
     52       4.4658      2.00000
     53       4.7375      0.00000
     54       5.1677      0.00000
     55       5.6111      0.00000
     56       5.9985      0.00000
     57       6.5547      0.00000
     58       7.4752      0.00000
     59       7.8212      0.00000
     60       7.8816      0.00000

 k-point     2 :       0.0909   -0.0000    0.0000
  band No.  band energies     occupation 
      1     -46.2029      2.00000
      2     -46.1966      2.00000
      3     -46.1844      2.00000
      4     -46.1791      2.00000
      5     -46.0952      2.00000
      6     -46.0861      2.00000
      7     -46.0855      2.00000
      8     -46.0748      2.00000
      9     -46.0684      2.00000
     10     -46.0603      2.00000
     11     -46.0315      2.00000
     12     -46.0199      2.00000
     13     -16.8785      2.00000
     14     -16.2270      2.00000
     15     -15.9755      2.00000
     16     -15.4708      2.00000
     17     -15.3305      2.00000
     18     -15.0005      2.00000
     19     -14.4509      2.00000
     20     -14.4208      2.00000
     21      -3.3781      2.00000
     22      -2.6901      2.00000
     23      -2.4686      2.00000
     24      -2.3283      2.00000
     25      -1.7509      2.00000
     26      -1.7231      2.00000
     27      -1.6492      2.00000
     28      -1.1358      2.00000
     29      -0.9688      2.00000
     30      -0.7652      2.00000
     31      -0.6584      2.00000
     32      -0.3495      2.00000
     33       0.1929      2.00000
     34       0.2777      2.00000
     35       0.4967      2.00000
     36       0.6552      2.00000
     37       0.7883      2.00000
     38       1.6499      2.00000
     39       1.6577      2.00000
     40       1.9263      2.00000
     41       1.9718      2.00000
     42       2.3428      2.00000
     43       2.6356      2.00000
     44       2.9577      2.00000
     45       3.4933      2.00000
     46       3.8531      2.00000
     47       3.9007      2.00000
     48       4.0312      2.00000
     49       4.1266      2.00000
     50       4.3256      2.00000
     51       4.4035      2.00000
     52       4.4669      2.00000
     53       4.9243      0.00000
     54       5.2717      0.00000
     55       5.6140      0.00000
     56       5.9911      0.00000
     57       6.6356      0.00000
     58       7.3884      0.00000
     59       7.6597      0.00000
     60       7.8502      0.00000

 k-point     3 :       0.1818   -0.0000    0.0000
  band No.  band energies     occupation 
      1     -46.1937      2.00000
      2     -46.1875      2.00000
      3     -46.1754      2.00000
      4     -46.1721      2.00000
      5     -46.1351      2.00000
      6     -46.1275      2.00000
      7     -46.1233      2.00000
      8     -46.1155      2.00000
      9     -46.0801      2.00000
     10     -46.0698      2.00000
     11     -46.0296      2.00000
     12     -46.0193      2.00000
     13     -16.6125      2.00000
     14     -16.0573      2.00000
     15     -15.7519      2.00000
     16     -15.4043      2.00000
     17     -15.3284      2.00000
     18     -14.9929      2.00000
     19     -14.4377      2.00000
     20     -14.4255      2.00000
     21      -3.0387      2.00000
     22      -2.5268      2.00000
     23      -2.2967      2.00000
     24      -2.1675      2.00000
     25      -1.9174      2.00000
     26      -1.9129      2.00000
     27      -1.5267      2.00000
     28      -1.4830      2.00000
     29      -1.1251      2.00000
     30      -0.6895      2.00000
     31      -0.5609      2.00000
     32      -0.4202      2.00000
     33      -0.3699      2.00000
     34      -0.0797      2.00000
     35       0.6215      2.00000
     36       0.6405      2.00000
     37       0.6965      2.00000
     38       0.9883      2.00000
     39       1.2396      2.00000
     40       1.5102      2.00000
     41       2.0269      2.00000
     42       2.1420      2.00000
     43       2.2450      2.00000
     44       3.1355      2.00000
     45       3.6077      2.00000
     46       3.7478      2.00000
     47       4.0194      2.00000
     48       4.0795      2.00000
     49       4.2342      2.00000
     50       4.2682      2.00000
     51       4.5161      2.00000
     52       4.6886      0.00000
     53       5.2447      0.00000
     54       5.4562      0.00000
     55       5.6397      0.00000
     56       5.9460      0.00000
     57       6.8288      0.00000
     58       7.1159      0.00000
     59       7.2700      0.00000
     60       7.7097      0.00000

 k-point     4 :       0.2727    0.0000    0.0000
  band No.  band energies     occupation 
      1     -46.1989      2.00000
      2     -46.1914      2.00000
      3     -46.1874      2.00000
      4     -46.1813      2.00000
      5     -46.1797      2.00000
      6     -46.1739      2.00000
      7     -46.1623      2.00000
      8     -46.1617      2.00000
      9     -46.0709      2.00000
     10     -46.0605      2.00000
     11     -46.0288      2.00000
     12     -46.0198      2.00000
     13     -16.2242      2.00000
     14     -15.8328      2.00000
     15     -15.4322      2.00000
     16     -15.3347      2.00000
     17     -15.3281      2.00000
     18     -14.9751      2.00000
     19     -14.4452      2.00000
     20     -14.4324      2.00000
     21      -2.6107      2.00000
     22      -2.3918      2.00000
     23      -2.2220      2.00000
     24      -2.2095      2.00000
     25      -2.0022      2.00000
     26      -1.9978      2.00000
     27      -1.6103      2.00000
     28      -1.5062      2.00000
     29      -1.4686      2.00000
     30      -1.0695      2.00000
     31      -0.9456      2.00000
     32      -0.3667      2.00000
     33      -0.2133      2.00000
     34      -0.1056      2.00000
     35       0.1384      2.00000
     36       0.3973      2.00000
     37       0.7733      2.00000
     38       0.8453      2.00000
     39       0.9075      2.00000
     40       0.9742      2.00000
     41       1.8231      2.00000
     42       1.8262      2.00000
     43       2.2816      2.00000
     44       2.7327      2.00000
     45       3.6647      2.00000
     46       3.9563      2.00000
     47       4.0679      2.00000
     48       4.2081      2.00000
     49       4.2966      2.00000
     50       4.3307      2.00000
     51       4.6924      0.00000
     52       4.7303      0.00000
     53       5.4926      0.00000
     54       5.5632      0.00000
     55       5.6932      0.00000
     56       5.8247      0.00000
     57       6.9057      0.00000
     58       6.9898      0.00000
     59       7.0225      0.00000
     60       7.5579      0.00000

 k-point     5 :       0.3636   -0.0000    0.0000
  band No.  band energies     occupation 
      1     -46.2559      2.00000
      2     -46.2478      2.00000
      3     -46.2441      2.00000
      4     -46.2394      2.00000
      5     -46.1694      2.00000
      6     -46.1626      2.00000
      7     -46.1540      2.00000
      8     -46.1535      2.00000
      9     -46.0590      2.00000
     10     -46.0486      2.00000
     11     -46.0305      2.00000
     12     -46.0225      2.00000
     13     -15.8013      2.00000
     14     -15.6211      2.00000
     15     -15.3476      2.00000
     16     -15.2977      2.00000
     17     -15.0765      2.00000
     18     -14.9297      2.00000
     19     -14.4919      2.00000
     20     -14.4789      2.00000
     21      -2.6090      2.00000
     22      -2.3511      2.00000
     23      -2.2821      2.00000
     24      -2.2356      2.00000
     25      -2.1991      2.00000
     26      -1.9839      2.00000
     27      -1.9006      2.00000
     28      -1.8155      2.00000
     29      -1.4771      2.00000
     30      -1.3989      2.00000
     31      -0.6170      2.00000
     32      -0.4637      2.00000
     33      -0.1883      2.00000
     34      -0.0047      2.00000
     35       0.1346      2.00000
     36       0.1382      2.00000
     37       0.4670      2.00000
     38       0.8171      2.00000
     39       0.8815      2.00000
     40       1.0608      2.00000
     41       1.4397      2.00000
     42       1.6619      2.00000
     43       2.0456      2.00000
     44       2.2639      2.00000
     45       3.7483      2.00000
     46       3.8814      2.00000
     47       3.9502      2.00000
     48       4.3760      2.00000
     49       4.5945      2.00000
     50       4.6161      2.00000
     51       4.7165      0.00000
     52       4.8097      0.00000
     53       5.5358      0.00000
     54       5.5640      0.00000
     55       5.6043      0.00000
     56       5.6833      0.00000
     57       6.8610      0.00000
     58       6.9281      0.00000
     59       7.0950      0.00000
     60       7.5000      0.00000

 k-point     6 :       0.4545   -0.0000    0.0000
  band No.  band energies     occupation 
      1     -46.2899      2.00000
      2     -46.2820      2.00000
      3     -46.2774      2.00000
      4     -46.2750      2.00000
      5     -46.1623      2.00000
      6     -46.1546      2.00000
      7     -46.1498      2.00000
      8     -46.1484      2.00000
      9     -46.0478      2.00000
     10     -46.0375      2.00000
     11     -46.0352      2.00000
     12     -46.0282      2.00000
     13     -15.4726      2.00000
     14     -15.4700      2.00000
     15     -15.3861      2.00000
     16     -15.3239      2.00000
     17     -14.8161      2.00000
     18     -14.7754      2.00000
     19     -14.6329      2.00000
     20     -14.5776      2.00000
     21      -2.8897      2.00000
     22      -2.7619      2.00000
     23      -2.3360      2.00000
     24      -2.2787      2.00000
     25      -2.0510      2.00000
     26      -1.9482      2.00000
     27      -1.8756      2.00000
     28      -1.8345      2.00000
     29      -1.4842      2.00000
     30      -1.1699      2.00000
     31      -1.1457      2.00000
     32      -0.7210      2.00000
     33      -0.1368      2.00000
     34      -0.0379      2.00000
     35       0.2599      2.00000
     36       0.5965      2.00000
     37       0.7426      2.00000
     38       0.9209      2.00000
     39       0.9389      2.00000
     40       1.0016      2.00000
     41       1.0695      2.00000
     42       1.3790      2.00000
     43       1.7198      2.00000
     44       2.0273      2.00000
     45       3.6659      2.00000
     46       3.7657      2.00000
     47       4.1352      2.00000
     48       4.3220      2.00000
     49       4.8366      0.00000
     50       4.8443      0.00000
     51       4.9048      0.00000
     52       4.9218      0.00000
     53       5.3827      0.00000
     54       5.4040      0.00000
     55       5.4833      0.00000
     56       5.5588      0.00000
     57       6.8793      0.00000
     58       6.8942      0.00000
     59       7.2206      0.00000
     60       7.3696      0.00000

 k-point     7 :       0.0000    0.1667    0.0000
  band No.  band energies     occupation 
      1     -46.2057      2.00000
      2     -46.1992      2.00000
      3     -46.1887      2.00000
      4     -46.1828      2.00000
      5     -46.0942      2.00000
      6     -46.0859      2.00000
      7     -46.0676      2.00000
      8     -46.0563      2.00000
      9     -46.0530      2.00000
     10     -46.0440      2.00000
     11     -46.0323      2.00000
     12     -46.0207      2.00000
     13     -16.9117      2.00000
     14     -16.2408      2.00000
     15     -16.1158      2.00000
     16     -15.5544      2.00000
     17     -15.2987      2.00000
     18     -15.0090      2.00000
     19     -14.4803      2.00000
     20     -14.4470      2.00000
     21      -3.4449      2.00000
     22      -2.6436      2.00000
     23      -2.6015      2.00000
     24      -2.4413      2.00000
     25      -1.9206      2.00000
     26      -1.4731      2.00000
     27      -1.4676      2.00000
     28      -0.8145      2.00000
     29      -0.7920      2.00000
     30      -0.6987      2.00000
     31      -0.6448      2.00000
     32      -0.5150      2.00000
     33      -0.2453      2.00000
     34       0.4907      2.00000
     35       0.6901      2.00000
     36       0.8341      2.00000
     37       1.2298      2.00000
     38       1.3766      2.00000
     39       1.5409      2.00000
     40       2.0762      2.00000
     41       2.1586      2.00000
     42       2.5335      2.00000
     43       2.5616      2.00000
     44       2.6271      2.00000
     45       3.6131      2.00000
     46       3.8424      2.00000
     47       3.8995      2.00000
     48       3.9616      2.00000
     49       4.1813      2.00000
     50       4.2787      2.00000
     51       4.3550      2.00000
     52       4.4091      2.00000
     53       4.9427      0.00000
     54       5.1182      0.00000
     55       5.5250      0.00000
     56       5.9795      0.00000
     57       6.6503      0.00000
     58       7.5777      0.00000
     59       7.8137      0.00000
     60       7.8841      0.00000

 k-point     8 :       0.0909    0.1667    0.0000
  band No.  band energies     occupation 
      1     -46.2023      2.00000
      2     -46.1958      2.00000
      3     -46.1852      2.00000
      4     -46.1801      2.00000
      5     -46.0951      2.00000
      6     -46.0868      2.00000
      7     -46.0846      2.00000
      8     -46.0747      2.00000
      9     -46.0684      2.00000
     10     -46.0603      2.00000
     11     -46.0310      2.00000
     12     -46.0202      2.00000
     13     -16.8191      2.00000
     14     -16.1799      2.00000
     15     -16.0366      2.00000
     16     -15.5240      2.00000
     17     -15.2959      2.00000
     18     -15.0069      2.00000
     19     -14.4734      2.00000
     20     -14.4471      2.00000
     21      -3.3247      2.00000
     22      -2.5779      2.00000
     23      -2.5314      2.00000
     24      -2.3625      2.00000
     25      -1.8976      2.00000
     26      -1.6288      2.00000
     27      -1.4645      2.00000
     28      -1.1308      2.00000
     29      -1.0838      2.00000
     30      -0.6365      2.00000
     31      -0.6313      2.00000
     32      -0.2717      2.00000
     33       0.0992      2.00000
     34       0.2879      2.00000
     35       0.6562      2.00000
     36       0.6612      2.00000
     37       0.8075      2.00000
     38       1.4998      2.00000
     39       1.6064      2.00000
     40       1.7864      2.00000
     41       1.9752      2.00000
     42       2.3469      2.00000
     43       2.3489      2.00000
     44       2.8173      2.00000
     45       3.5802      2.00000
     46       3.8695      2.00000
     47       3.8889      2.00000
     48       4.1349      2.00000
     49       4.1413      2.00000
     50       4.2389      2.00000
     51       4.5047      2.00000
     52       4.5516      2.00000
     53       4.9907      0.00000
     54       5.2384      0.00000
     55       5.5244      0.00000
     56       5.9685      0.00000
     57       6.7250      0.00000
     58       7.4500      0.00000
     59       7.6389      0.00000
     60       7.8835      0.00000

 k-point     9 :       0.1818    0.1667   -0.0000
  band No.  band energies     occupation 
      1     -46.1932      2.00000
      2     -46.1868      2.00000
      3     -46.1762      2.00000
      4     -46.1731      2.00000
      5     -46.1350      2.00000
      6     -46.1272      2.00000
[...]
     51       4.5548      2.00000
     52       4.5612      2.00000
     53       5.0224      0.00000
     54       5.0280      0.00000
     55       5.6832      0.00000
     56       5.6889      0.00000
     57       7.4515      0.00000
     58       7.4848      0.00000
     59       7.9495      0.00000
     60       7.9606      0.00000

 k-point   131 :       0.1818    0.5000    0.5000
  band No.  band energies     occupation 
      1     -46.1910      2.00000
      2     -46.1833      2.00000
      3     -46.1792      2.00000
      4     -46.1777      2.00000
      5     -46.1343      2.00000
      6     -46.1254      2.00000
      7     -46.1233      2.00000
      8     -46.1182      2.00000
      9     -46.0784      2.00000
     10     -46.0702      2.00000
     11     -46.0282      2.00000
     12     -46.0202      2.00000
     13     -16.1968      2.00000
     14     -16.1920      2.00000
     15     -15.7439      2.00000
     16     -15.7422      2.00000
     17     -15.0919      2.00000
     18     -15.0860      2.00000
     19     -14.5252      2.00000
     20     -14.5156      2.00000
     21      -2.7013      2.00000
     22      -2.6990      2.00000
     23      -2.3540      2.00000
     24      -2.3509      2.00000
     25      -1.7754      2.00000
     26      -1.7697      2.00000
     27      -1.7004      2.00000
     28      -1.6944      2.00000
     29      -0.4933      2.00000
     30      -0.4905      2.00000
     31      -0.3811      2.00000
     32      -0.3794      2.00000
     33       0.2258      2.00000
     34       0.2300      2.00000
     35       0.2448      2.00000
     36       0.2483      2.00000
     37       1.0505      2.00000
     38       1.0572      2.00000
     39       1.1658      2.00000
     40       1.1688      2.00000
     41       1.3538      2.00000
     42       1.3575      2.00000
     43       2.5287      2.00000
     44       2.5347      2.00000
     45       3.9351      2.00000
     46       3.9392      2.00000
     47       3.9419      2.00000
     48       3.9468      2.00000
     49       4.6174      1.99996
     50       4.6245      1.99994
     51       4.7023      0.00000
     52       4.7069      0.00000
     53       5.1204      0.00000
     54       5.1225      0.00000
     55       5.6140      0.00000
     56       5.6190      0.00000
     57       7.3296      0.00000
     58       7.3365      0.00000
     59       7.8357      0.00000
     60       7.8468      0.00000

 k-point   132 :       0.2727    0.5000    0.5000
  band No.  band energies     occupation 
      1     -46.1995      2.00000
      2     -46.1909      2.00000
      3     -46.1897      2.00000
      4     -46.1836      2.00000
      5     -46.1752      2.00000
      6     -46.1692      2.00000
      7     -46.1653      2.00000
      8     -46.1641      2.00000
      9     -46.0696      2.00000
     10     -46.0611      2.00000
     11     -46.0282      2.00000
     12     -46.0203      2.00000
     13     -15.8721      2.00000
     14     -15.8682      2.00000
     15     -15.5903      2.00000
     16     -15.5885      2.00000
     17     -15.0611      2.00000
     18     -15.0547      2.00000
     19     -14.5111      2.00000
     20     -14.5014      2.00000
     21      -2.4987      2.00000
     22      -2.4981      2.00000
     23      -2.2555      2.00000
     24      -2.2528      2.00000
     25      -1.9967      2.00000
     26      -1.9895      2.00000
     27      -1.9678      2.00000
     28      -1.9631      2.00000
     29      -1.0372      2.00000
     30      -1.0355      2.00000
     31      -0.4066      2.00000
     32      -0.4058      2.00000
     33       0.1147      2.00000
     34       0.1187      2.00000
     35       0.3379      2.00000
     36       0.3400      2.00000
     37       0.6001      2.00000
     38       0.6008      2.00000
     39       1.2085      2.00000
     40       1.2122      2.00000
     41       1.3679      2.00000
     42       1.3703      2.00000
     43       2.3878      2.00000
     44       2.3954      2.00000
     45       4.0216      2.00000
     46       4.0277      2.00000
     47       4.0921      2.00000
     48       4.0951      2.00000
     49       4.6439      1.31998
     50       4.6502      1.27295
     51       4.8070      0.00000
     52       4.8093      0.00000
     53       5.2245      0.00000
     54       5.2286      0.00000
     55       5.4738      0.00000
     56       5.4756      0.00000
     57       7.1793      0.00000
     58       7.1825      0.00000
     59       7.6955      0.00000
     60       7.7265      0.00000

 k-point   133 :       0.3636    0.5000    0.5000
  band No.  band energies     occupation 
      1     -46.2561      2.00000
      2     -46.2474      2.00000
      3     -46.2446      2.00000
      4     -46.2406      2.00000
      5     -46.1679      2.00000
      6     -46.1600      2.00000
      7     -46.1561      2.00000
      8     -46.1544      2.00000
      9     -46.0581      2.00000
     10     -46.0493      2.00000
     11     -46.0304      2.00000
     12     -46.0227      2.00000
     13     -15.5660      2.00000
     14     -15.5644      2.00000
     15     -15.4625      2.00000
     16     -15.4606      2.00000
     17     -14.9769      2.00000
     18     -14.9692      2.00000
     19     -14.5278      2.00000
     20     -14.5182      2.00000
     21      -2.6291      2.00000
     22      -2.6269      2.00000
     23      -2.3305      2.00000
     24      -2.3268      2.00000
     25      -2.1223      2.00000
     26      -2.1206      2.00000
     27      -2.0063      2.00000
     28      -2.0004      2.00000
     29      -1.3385      2.00000
     30      -1.3376      2.00000
     31      -0.7371      2.00000
     32      -0.7336      2.00000
     33       0.1818      2.00000
     34       0.1855      2.00000
     35       0.3477      2.00000
     36       0.3516      2.00000
     37       0.5202      2.00000
     38       0.5232      2.00000
     39       1.0746      2.00000
     40       1.0760      2.00000
     41       1.5804      2.00000
     42       1.5845      2.00000
     43       2.3290      2.00000
     44       2.3362      2.00000
     45       4.0135      2.00000
     46       4.0186      2.00000
     47       4.2064      2.00000
     48       4.2084      2.00000
     49       4.6747      0.00037
     50       4.6751      0.00031
     51       4.8379      0.00000
     52       4.8403      0.00000
     53       5.2623      0.00000
     54       5.2667      0.00000
     55       5.2693      0.00000
     56       5.2705      0.00000
     57       7.1537      0.00000
     58       7.1559      0.00000
     59       7.2415      0.00000
     60       7.2450      0.00000

 k-point   134 :       0.4545    0.5000    0.5000
  band No.  band energies     occupation 
      1     -46.2899      2.00000
      2     -46.2819      2.00000
      3     -46.2778      2.00000
      4     -46.2757      2.00000
      5     -46.1619      2.00000
      6     -46.1539      2.00000
      7     -46.1499      2.00000
      8     -46.1483      2.00000
      9     -46.0474      2.00000
     10     -46.0378      2.00000
     11     -46.0354      2.00000
     12     -46.0284      2.00000
     13     -15.4105      2.00000
     14     -15.4092      2.00000
     15     -15.3951      2.00000
     16     -15.3932      2.00000
     17     -14.7998      2.00000
     18     -14.7908      2.00000
     19     -14.6200      2.00000
     20     -14.6106      2.00000
     21      -2.7898      2.00000
     22      -2.7865      2.00000
     23      -2.6670      2.00000
     24      -2.6637      2.00000
     25      -2.0000      2.00000
     26      -1.9980      2.00000
     27      -1.9121      2.00000
     28      -1.9094      2.00000
     29      -1.3758      2.00000
     30      -1.3729      2.00000
     31      -1.1231      2.00000
     32      -1.1184      2.00000
     33       0.2375      2.00000
     34       0.2413      2.00000
     35       0.2943      2.00000
     36       0.2993      2.00000
     37       0.7039      2.00000
     38       0.7043      2.00000
     39       0.9114      2.00000
     40       0.9124      2.00000
     41       1.9120      2.00000
     42       1.9175      2.00000
     43       2.1971      2.00000
     44       2.2035      2.00000
     45       4.0190      2.00000
     46       4.0224      2.00000
     47       4.1362      2.00000
     48       4.1382      2.00000
     49       4.7810      0.00000
     50       4.7869      0.00000
     51       4.9010      0.00000
     52       4.9083      0.00000
     53       5.1050      0.00000
     54       5.1061      0.00000
     55       5.1926      0.00000
     56       5.1953      0.00000
     57       7.2042      0.00000
     58       7.2054      0.00000
     59       7.2402      0.00000
     60       7.2419      0.00000


--------------------------------------------------------------------------------------------------------


 soft charge-density along one line, spin component           1
         0         1         2         3         4         5         6         7         8         9
 total charge-density along one line
 
 pseudopotential strength for first ion, spin component:           1
-45.711  -0.056  -0.000   9.309   0.020   0.000  -0.000   0.007
 -0.056 -45.655  -0.000   0.020   9.280   0.000   0.000   0.003
 -0.000  -0.000 -45.682   0.000   0.000   9.305   0.008   0.000
  9.309   0.020   0.000   5.083  -0.009  -0.000   0.000   0.002
  0.020   9.280   0.000  -0.009   5.094  -0.000   0.000   0.000
  0.000   0.000   9.305  -0.000  -0.000   5.092  -0.002   0.000
 -0.000   0.000   0.008   0.000   0.000  -0.002  -4.635  -0.000
  0.007   0.003   0.000   0.002   0.000   0.000  -0.000  -4.520
 -0.002  -0.014  -0.000   0.001   0.003  -0.000   0.000  -0.085
  0.000  -0.000  -0.010   0.000   0.000  -0.003   0.105  -0.000
  0.001  -0.008  -0.000  -0.000  -0.003   0.000  -0.000   0.119
 -0.000   0.000   0.007   0.000   0.000  -0.002  -5.099  -0.000
  0.007   0.003   0.000   0.002   0.000   0.000  -0.000  -4.985
 -0.002  -0.013  -0.000   0.001   0.003  -0.000   0.000  -0.084
  0.000  -0.000  -0.010   0.000   0.000  -0.003   0.104  -0.000
  0.001  -0.009  -0.000  -0.000  -0.002   0.000  -0.000   0.118
  0.001   0.000   0.000  -0.000  -0.004   0.000   0.000   0.008
  0.002   0.000   0.000  -0.000  -0.008   0.000   0.000   0.016
 total augmentation occupancy for first ion, spin component:           1
  1.984  -0.000  -0.000  -0.062  -0.001  -0.000   0.000   0.031  -0.003   0.000   0.011  -0.000  -0.030   0.003  -0.000  -0.010
 -0.000   1.984  -0.000  -0.001  -0.060   0.000   0.000  -0.014  -0.007   0.000  -0.021  -0.000   0.013   0.006  -0.000   0.020
 -0.000  -0.000   1.985  -0.000   0.000  -0.058   0.004   0.000  -0.000  -0.009  -0.000  -0.003  -0.000   0.000   0.009   0.000
 -0.062  -0.001  -0.000   0.282  -0.005   0.000   0.000   0.264  -0.091   0.000   0.172  -0.000  -0.294   0.075  -0.000  -0.177
 -0.001  -0.060   0.000  -0.005   0.286   0.000   0.000  -0.145  -0.173   0.000  -0.179  -0.000   0.160   0.187  -0.000   0.212
 -0.000   0.000  -0.058   0.000   0.000   0.275   0.127   0.000  -0.000  -0.028   0.000  -0.133  -0.000   0.000   0.076  -0.000
  0.000   0.000   0.004   0.000   0.000   0.127   6.671   0.000  -0.000  -0.009   0.000  -6.028  -0.000   0.000  -1.651  -0.000
  0.031  -0.014   0.000   0.264  -0.145   0.000   0.000   6.514  -0.045   0.000   1.114  -0.000  -6.895   0.746  -0.000  -2.231
 -0.003  -0.007  -0.000  -0.091  -0.173  -0.000  -0.000  -0.045   4.958  -0.000  -0.693   0.000   0.739  -3.737   0.000   0.878
  0.000   0.000  -0.009   0.000   0.000  -0.028  -0.009   0.000  -0.000   6.355  -0.000  -1.628  -0.000   0.000  -6.145  -0.000
  0.011  -0.021  -0.000   0.172  -0.179   0.000   0.000   1.114  -0.693  -0.000   5.007  -0.000  -2.244   0.880  -0.000  -4.548
 -0.000  -0.000  -0.003  -0.000  -0.000  -0.133  -6.028  -0.000   0.000  -1.628  -0.000   6.571   0.000  -0.000   2.889   0.000
 -0.030   0.013  -0.000  -0.294   0.160  -0.000  -0.000  -6.895   0.739  -0.000  -2.244   0.000   8.215  -1.255   0.000   3.129
  0.003   0.006   0.000   0.075   0.187   0.000   0.000   0.746  -3.737   0.000   0.880  -0.000  -1.255   3.725  -0.000  -1.028
 -0.000  -0.000   0.009  -0.000  -0.000   0.076  -1.651  -0.000   0.000  -6.145  -0.000   2.889   0.000  -0.000   7.025   0.000
 -0.010   0.020   0.000  -0.177   0.212  -0.000  -0.000  -2.231   0.878  -0.000  -4.548   0.000   3.129  -1.028   0.000   5.072
  0.007   0.008   0.000   0.062   0.007  -0.000  -0.000   0.574   0.277  -0.000  -0.413   0.000  -0.538  -0.155   0.000   0.301
 -0.004  -0.004  -0.000  -0.012   0.001   0.000   0.000  -0.138  -0.063   0.000   0.084  -0.000   0.139   0.031  -0.000  -0.061


------------------------ aborting loop because EDIFF is reached ----------------------------------------


    FORLOC:  cpu time    0.0018: real time    0.0121
    FORNL :  cpu time    3.6892: real time    7.4173
    STRESS:  cpu time   89.7142: real time  200.1992
    FORCOR:  cpu time    0.1560: real time    0.3398
    OFIELD:  cpu time    0.0003: real time    0.0003

  FORCE on cell =-STRESS in cart. coord.  units (eV):
  Direction    XX          YY          ZZ          XY          YZ          ZX
  --------------------------------------------------------------------------------------
  Alpha Z   480.94162   480.94162   480.94162
  Ewald   -1158.64499 -3960.43414 -2383.65645     0.06836     0.18067    -0.00543
  Hartree  2171.64495   167.71845  1328.72498     0.02970     0.11258    -0.00216
  E(xc)    -589.04236  -588.56644  -588.97172     0.00007    -0.00015    -0.00001
  Local   -2666.63632  2106.78931  -621.81455    -0.09560    -0.27968     0.00730
  n-local  -311.49340  -306.26955  -303.46078     0.00127    -0.00324    -0.00016
  augment   472.17800   473.50941   475.75637    -0.00119    -0.00857     0.00018
  Kinetic  1601.12850  1626.37262  1612.49396    -0.00208    -0.00839     0.00019
  Fock        0.00000     0.00000     0.00000     0.00000     0.00000     0.00000
  -------------------------------------------------------------------------------------
  Total       0.07599     0.06128     0.01344     0.00054    -0.00678    -0.00008
  in kB       1.05255     0.84883     0.18623     0.00754    -0.09388    -0.00115
  external pressure =        0.70 kB  Pullay stress =        0.00 kB


 VOLUME and BASIS-vectors are now :
 -----------------------------------------------------------------------------
  energy-cutoff  :      520.00
  volume of cell :      115.67
      direct lattice vectors                 reciprocal lattice vectors
     2.673431339 -0.000002142  0.000001932     0.374051125  0.000000401  0.000000193
    -0.000005137  4.788456075  0.000473653     0.000000167  0.208835582 -0.000025269
    -0.000004668  0.001093314  9.035657830    -0.000000080 -0.000010947  0.110672630

  length of vectors
     2.673431339  4.788456099  9.035657896     0.374051125  0.208835584  0.110672630


 FORCES acting on ions:
    Electron-Ion                     Ewald-Force                    Non-Local-Force
 -----------------------------------------------------------------------------------------------
   -.571E-02 -.457E+02 0.134E+03   0.554E-02 0.466E+02 -.132E+03   0.204E-03 -.830E+00 -.150E+01
   -.441E-02 0.457E+02 -.134E+03   0.410E-02 -.466E+02 0.132E+03   0.393E-03 0.831E+00 0.150E+01
   -.452E-02 -.460E+02 -.133E+03   0.439E-02 0.468E+02 0.132E+03   0.166E-03 -.830E+00 0.152E+01
   0.881E-03 0.460E+02 0.133E+03   -.106E-02 -.468E+02 -.132E+03   0.291E-03 0.830E+00 -.152E+01
   -.768E-02 -.391E+03 0.867E+02   0.841E-02 0.415E+03 -.953E+02   -.605E-03 -.238E+02 0.861E+01
   -.472E-02 -.392E+03 -.865E+02   0.513E-02 0.415E+03 0.951E+02   -.420E-03 -.238E+02 -.859E+01
   0.712E-02 0.392E+03 0.865E+02   -.795E-02 -.415E+03 -.951E+02   0.705E-03 0.238E+02 0.858E+01
   0.563E-02 0.391E+03 -.868E+02   -.636E-02 -.415E+03 0.954E+02   0.719E-03 0.238E+02 -.861E+01
   -.426E-02 -.398E+02 -.541E+02   0.442E-02 0.427E+02 0.564E+02   -.497E-04 -.289E+01 -.228E+01
   0.110E-01 0.399E+02 -.541E+02   -.118E-01 -.427E+02 0.564E+02   0.477E-03 0.289E+01 -.228E+01
   -.396E-02 -.399E+02 0.541E+02   0.402E-02 0.428E+02 -.564E+02   0.217E-03 -.289E+01 0.228E+01
   0.821E-02 0.398E+02 0.542E+02   -.881E-02 -.427E+02 -.565E+02   0.287E-03 0.289E+01 0.228E+01
 -----------------------------------------------------------------------------------------------
   -.242E-02 0.360E-02 0.272E-02   -.574E-15 -.142E-12 -.639E-13   0.238E-02 -.408E-02 -.242E-02
 
 
 POSITION                                       TOTAL-FORCE (eV/Angst)
 -----------------------------------------------------------------------------------
      0.66838      0.24545      7.75002         0.000039      0.003206      0.034885
      2.00505      4.54405      1.28620         0.000084     -0.002546     -0.033789
      2.00508      2.63994      5.80398         0.000032      0.004106      0.014582
      0.66832      2.14966      3.23212         0.000110     -0.005023     -0.016919
      0.66834      3.36025      4.72135         0.000136     -0.006202     -0.011458
      2.00508      0.96642      8.83219        -0.000003     -0.017892      0.014313
      0.66836      3.82298      0.20397        -0.000119      0.018856     -0.008686
      2.00505      1.42928      4.31462        -0.000007      0.006329      0.011190
      0.66832      0.76436      2.10853         0.000116     -0.031757     -0.022637
      0.66842      1.63123      6.62665        -0.000358      0.009343      0.014843
      2.00501      3.15834      2.40963         0.000272     -0.007290     -0.017898
      2.00513      4.02532      6.92756        -0.000302      0.028869      0.021575
 -----------------------------------------------------------------------------------
    total drift:                               -0.000038     -0.000481      0.000306


--------------------------------------------------------------------------------------------------------



  FREE ENERGIE OF THE ION-ELECTRON SYSTEM (eV)
  ---------------------------------------------------
  free  energy   TOTEN  =      -124.10186867 eV

  energy  without entropy=     -124.10128864  energy(sigma->0) =     -124.10157865
 


--------------------------------------------------------------------------------------------------------


    POTLOK:  cpu time    1.2690: real time    3.0681


--------------------------------------------------------------------------------------------------------


 stress matrix after NEB project (eV)
      0.07599      0.00054     -0.00008
      0.00054      0.06128     -0.00678
     -0.00008     -0.00678      0.01344
  FORCES: max atom, RMS     0.038999    0.025345
  FORCE total and by dimension    0.087799    0.034885
  Stress total and by dimension    0.099011    0.075990
 writing wavefunctions
     LOOP+:  cpu time  298.0969: real time  735.6628
    4ORBIT:  cpu time    0.0000: real time    0.0000

 total amount of memory used by VASP MPI-rank0   145424. kBytes
=======================================================================

   base      :      30000. kBytes
   nonl-proj :      30872. kBytes
   fftplans  :       1370. kBytes
   grid      :       2865. kBytes
   one-center:         46. kBytes
   wavefun   :      80271. kBytes
 
  
  
 General timing and accounting informations for this job:
 ========================================================
  
                  Total CPU time used (sec):      313.999
                            User time (sec):      254.630
                          System time (sec):       59.370
                         Elapsed time (sec):      848.362
  
                   Maximum memory used (kb):      196564.
                   Average memory used (kb):           0.
  
                          Minor page faults:       156268
                          Major page faults:            5
                 Voluntary context switches:          518
