<?xml version="1.0" encoding="ISO-8859-1"?>
<modeling>
 <generator>
  <i name="program" type="string">vasp </i>
  <i name="version" type="string">5.4.4.18Apr17-6-g9f103f2a35  </i>
  <i name="subversion" type="string">(build Nov 08 2022 17:27:33) complex            parallel </i>
  <i name="platform" type="string">LinuxIFC </i>
  <i name="date" type="string">2022 11 23 </i>
  <i name="time" type="string">02:54:23 </i>
 </generator>
 <incar>
  <i type="string" name="PREC">accurate</i>
  <i type="string" name="ALGO"> All</i>
  <i type="int" name="ISPIN">     1</i>
  <i type="int" name="ICHARG">     0</i>
  <i type="int" name="NELM">   200</i>
  <i type="int" name="IBRION">     2</i>
  <i name="EDIFF">      0.00000100</i>
  <i name="EDIFFG">     -0.03000000</i>
  <i type="int" name="NSW">     0</i>
  <i type="int" name="ISIF">     3</i>
  <i type="int" name="ISYM">     0</i>
  <i name="ENCUT">    520.00000000</i>
  <i name="ENAUG">   1040.00000000</i>
  <v name="MAGMOM">      0.00000000      0.00000000      0.00000000      0.00000000      0.00000000      0.00000000      0.00000000      0.00000000      0.00000000      0.00000000      0.00000000      0.00000000</v>
  <i type="logical" name="LREAL"> F  </i>
  <i type="int" name="ISMEAR">     0</i>
  <i name="SIGMA">      0.01000000</i>
  <i name="KSPACING">      0.22000000</i>
  <i type="int" name="LMAXMIX">     4</i>
  <i type="logical" name="LWAVE"> T  </i>
  <i type="logical" name="LCHARG"> T  </i>
  <i type="logical" name="LVTOT"> T  </i>
  <i type="logical" name="LVHAR"> T  </i>
  <i type="int" name="LORBIT">     0</i>
  <i type="logical" name="LELF"> T  </i>
  <i type="logical" name="LASPH"> T  </i>
  <i type="logical" name="LAECHG"> T  </i>
  <v type="int" name="KPOINT_BSE">    -1     0     0     0</v>
  <i type="int" name="NELM">   200</i>
  <i type="string" name="GGA"> Pe</i>
  <i type="string" name="METAGGA"> R2scan</i>
  <i type="logical" name="LASPH"> T  </i>
  <i type="int" name="LMIXTAU">    -1</i>
 </incar>
 <structure name="primitive_cell" >
  <crystal>
   <varray name="basis" >
    <v>       2.67343134      -0.00000214       0.00000193 </v>
    <v>      -0.00000514       4.78845608       0.00047365 </v>
    <v>      -0.00000467       0.00109331       9.03565783 </v>
   </varray>
   <i name="volume">    115.67095304 </i>
   <varray name="rec_basis" >
    <v>       0.37405112       0.00000040       0.00000019 </v>
    <v>       0.00000017       0.20883558      -0.00002527 </v>
    <v>      -0.00000008      -0.00001095       0.11067263 </v>
   </varray>
  </crystal>
  <varray name="positions" >
   <v>       0.25000808       0.05106347      -0.14228776 </v>
   <v>       0.25002524       0.34049184      -0.26662939 </v>
   <v>      -0.24999616       0.20160076      -0.02252887 </v>
   <v>      -0.24997491      -0.15954493      -0.23335344 </v>
   <v>       0.25000099      -0.20162993       0.02253209 </v>
   <v>      -0.25000857      -0.05107238       0.14229722 </v>
   <v>      -0.24999494      -0.44883322      -0.35768770 </v>
   <v>       0.24998599       0.15957218       0.23334774 </v>
   <v>       0.24999600      -0.29837983      -0.47751282 </v>
   <v>      -0.25000711       0.29837572       0.47749408 </v>
   <v>      -0.25002095      -0.34048578       0.26664578 </v>
   <v>       0.24998634       0.44884310       0.35768407 </v>
  </varray>
 </structure>
 <varray name="primitive_index" >
  <v type="int" >        1 </v>
  <v type="int" >       10 </v>
  <v type="int" >        6 </v>
  <v type="int" >       12 </v>
  <v type="int" >        7 </v>
  <v type="int" >        2 </v>
  <v type="int" >        3 </v>
  <v type="int" >        9 </v>
  <v type="int" >        5 </v>
  <v type="int" >        8 </v>
  <v type="int" >       11 </v>
  <v type="int" >        4 </v>
 </varray>
 <kpoints>
  <generation param="Gamma">
   <v type="int" name="divisions">      11        6        4 </v>
   <v name="usershift">      0.00000000       0.00000000       0.00000000 </v>
   <v name="genvec1">      0.09090909      -0.00000000      -0.00000000 </v>
   <v name="genvec2">     -0.00000000       0.16666667       0.00000000 </v>
   <v name="genvec3">      0.00000000       0.00000000       0.25000000 </v>
   <v name="shift">      0.00000000       0.00000000       0.00000000 </v>
  </generation>
  <varray name="kpointlist" >
   <v>       0.00000000       0.00000000       0.00000000 </v>
   <v>       0.09090909      -0.00000000       0.00000000 </v>
   <v>       0.18181818      -0.00000000       0.00000000 </v>
   <v>       0.27272727       0.00000000       0.00000000 </v>
   <v>       0.36363636      -0.00000000       0.00000000 </v>
   <v>       0.45454545      -0.00000000       0.00000000 </v>
   <v>       0.00000000       0.16666667       0.00000000 </v>
   <v>       0.09090909       0.16666667       0.00000000 </v>
   <v>       0.18181818       0.16666667      -0.00000000 </v>
   <v>       0.27272727       0.16666667       0.00000000 </v>
   <v>       0.36363636       0.16666667       0.00000000 </v>
   <v>       0.45454545       0.16666667       0.00000000 </v>
   <v>      -0.45454545       0.16666667       0.00000000 </v>
   <v>      -0.36363636       0.16666667      -0.00000000 </v>
   <v>      -0.27272727       0.16666667      -0.00000000 </v>
   <v>      -0.18181818       0.16666667       0.00000000 </v>
   <v>      -0.09090909       0.16666667       0.00000000 </v>
   <v>       0.00000000       0.33333333       0.00000000 </v>
   <v>       0.09090909       0.33333333       0.00000000 </v>
   <v>       0.18181818       0.33333333       0.00000000 </v>
   <v>       0.27272727       0.33333333       0.00000000 </v>
   <v>       0.36363636       0.33333333      -0.00000000 </v>
   <v>       0.45454545       0.33333333       0.00000000 </v>
   <v>      -0.45454545       0.33333333       0.00000000 </v>
   <v>      -0.36363636       0.33333333       0.00000000 </v>
   <v>      -0.27272727       0.33333333       0.00000000 </v>
   <v>      -0.18181818       0.33333333       0.00000000 </v>
   <v>      -0.09090909       0.33333333      -0.00000000 </v>
   <v>      -0.00000000       0.50000000      -0.00000000 </v>
   <v>       0.09090909       0.50000000       0.00000000 </v>
   <v>       0.18181818       0.50000000       0.00000000 </v>
   <v>       0.27272727       0.50000000       0.00000000 </v>
   <v>       0.36363636       0.50000000      -0.00000000 </v>
   <v>       0.45454545       0.50000000       0.00000000 </v>
   <v>       0.00000000       0.00000000       0.25000000 </v>
   <v>       0.09090909       0.00000000       0.25000000 </v>
   <v>       0.18181818       0.00000000       0.25000000 </v>
   <v>       0.27272727       0.00000000       0.25000000 </v>
   <v>       0.36363636       0.00000000       0.25000000 </v>
   <v>       0.45454545       0.00000000       0.25000000 </v>
   <v>      -0.45454545       0.00000000       0.25000000 </v>
   <v>      -0.36363636       0.00000000       0.25000000 </v>
   <v>      -0.27272727       0.00000000       0.25000000 </v>
   <v>      -0.18181818       0.00000000       0.25000000 </v>
   <v>      -0.09090909       0.00000000       0.25000000 </v>
   <v>      -0.00000000       0.16666667       0.25000000 </v>
   <v>       0.09090909       0.16666667       0.25000000 </v>
   <v>       0.18181818       0.16666667       0.25000000 </v>
   <v>       0.27272727       0.16666667       0.25000000 </v>
   <v>       0.36363636       0.16666667       0.25000000 </v>
   <v>       0.45454545       0.16666667       0.25000000 </v>
   <v>      -0.45454545       0.16666667       0.25000000 </v>
   <v>      -0.36363636       0.16666667       0.25000000 </v>
   <v>      -0.27272727       0.16666667       0.25000000 </v>
   <v>      -0.18181818       0.16666667       0.25000000 </v>
   <v>      -0.09090909       0.16666667       0.25000000 </v>
   <v>      -0.00000000       0.33333333       0.25000000 </v>
   <v>       0.09090909       0.33333333       0.25000000 </v>
   <v>       0.18181818       0.33333333       0.25000000 </v>
   <v>       0.27272727       0.33333333       0.25000000 </v>
   <v>       0.36363636       0.33333333       0.25000000 </v>
   <v>       0.45454545       0.33333333       0.25000000 </v>
   <v>      -0.45454545       0.33333333       0.25000000 </v>
   <v>      -0.36363636       0.33333333       0.25000000 </v>
   <v>      -0.27272727       0.33333333       0.25000000 </v>
   <v>      -0.18181818       0.33333333       0.25000000 </v>
   <v>      -0.09090909       0.33333333       0.25000000 </v>
   <v>       0.00000000       0.50000000       0.25000000 </v>
   <v>       0.09090909       0.50000000       0.25000000 </v>
   <v>       0.18181818       0.50000000       0.25000000 </v>
   <v>       0.27272727       0.50000000       0.25000000 </v>
   <v>       0.36363636       0.50000000       0.25000000 </v>
   <v>       0.45454545       0.50000000       0.25000000 </v>
   <v>      -0.45454545       0.50000000       0.25000000 </v>
   <v>      -0.36363636       0.50000000       0.25000000 </v>
   <v>      -0.27272727       0.50000000       0.25000000 </v>
   <v>      -0.18181818       0.50000000       0.25000000 </v>
   <v>      -0.09090909       0.50000000       0.25000000 </v>
   <v>      -0.00000000      -0.33333333       0.25000000 </v>
   <v>       0.09090909      -0.33333333       0.25000000 </v>
   <v>       0.18181818      -0.33333333       0.25000000 </v>
   <v>       0.27272727      -0.33333333       0.25000000 </v>
   <v>       0.36363636      -0.33333333       0.25000000 </v>
   <v>       0.45454545      -0.33333333       0.25000000 </v>
   <v>      -0.45454545      -0.33333333       0.25000000 </v>
   <v>      -0.36363636      -0.33333333       0.25000000 </v>
   <v>      -0.27272727      -0.33333333       0.25000000 </v>
   <v>      -0.18181818      -0.33333333       0.25000000 </v>
   <v>      -0.09090909      -0.33333333       0.25000000 </v>
   <v>      -0.00000000      -0.16666667       0.25000000 </v>
   <v>       0.09090909      -0.16666667       0.25000000 </v>
   <v>       0.18181818      -0.16666667       0.25000000 </v>
   <v>       0.27272727      -0.16666667       0.25000000 </v>
   <v>       0.36363636      -0.16666667       0.25000000 </v>
   <v>       0.45454545      -0.16666667       0.25000000 </v>
   <v>      -0.45454545      -0.16666667       0.25000000 </v>
   <v>      -0.36363636      -0.16666667       0.25000000 </v>
   <v>      -0.27272727      -0.16666667       0.25000000 </v>
   <v>      -0.18181818      -0.16666667       0.25000000 </v>
   <v>      -0.09090909      -0.16666667       0.25000000 </v>
   <v>       0.00000000       0.00000000       0.50000000 </v>
   <v>       0.09090909       0.00000000       0.50000000 </v>
   <v>       0.18181818       0.00000000       0.50000000 </v>
   <v>       0.27272727       0.00000000       0.50000000 </v>
   <v>       0.36363636       0.00000000       0.50000000 </v>
   <v>       0.45454545       0.00000000       0.50000000 </v>
   <v>      -0.00000000       0.16666667       0.50000000 </v>
   <v>       0.09090909       0.16666667       0.50000000 </v>
   <v>       0.18181818       0.16666667       0.50000000 </v>
   <v>       0.27272727       0.16666667       0.50000000 </v>
   <v>       0.36363636       0.16666667       0.50000000 </v>
   <v>       0.45454545       0.16666667       0.50000000 </v>
   <v>      -0.45454545       0.16666667       0.50000000 </v>
   <v>      -0.36363636       0.16666667       0.50000000 </v>
   <v>      -0.27272727       0.16666667       0.50000000 </v>
   <v>      -0.18181818       0.16666667       0.50000000 </v>
   <v>      -0.09090909       0.16666667       0.50000000 </v>
   <v>      -0.00000000       0.33333333       0.50000000 </v>
   <v>       0.09090909       0.33333333       0.50000000 </v>
   <v>       0.18181818       0.33333333       0.50000000 </v>
   <v>       0.27272727       0.33333333       0.50000000 </v>
   <v>       0.36363636       0.33333333       0.50000000 </v>
   <v>       0.45454545       0.33333333       0.50000000 </v>
   <v>      -0.45454545       0.33333333       0.50000000 </v>
   <v>      -0.36363636       0.33333333       0.50000000 </v>
   <v>      -0.27272727       0.33333333       0.50000000 </v>
   <v>      -0.18181818       0.33333333       0.50000000 </v>
   <v>      -0.09090909       0.33333333       0.50000000 </v>
   <v>      -0.00000000       0.50000000       0.50000000 </v>
   <v>       0.09090909       0.50000000       0.50000000 </v>
   <v>       0.18181818       0.50000000       0.50000000 </v>
   <v>       0.27272727       0.50000000       0.50000000 </v>
   <v>       0.36363636       0.50000000       0.50000000 </v>
   <v>       0.45454545       0.50000000       0.50000000 </v>
  </varray>
  <varray name="weights" >
   <v>       0.00378788 </v>
   <v>       0.00757576 </v>
   <v>       0.00757576 </v>
   <v>       0.00757576 </v>
   <v>       0.00757576 </v>
   <v>       0.00757576 </v>
   <v>       0.00757576 </v>
   <v>       0.00757576 </v>
   <v>       0.00757576 </v>
   <v>       0.00757576 </v>
   <v>       0.00757576 </v>
   <v>       0.00757576 </v>
   <v>       0.00757576 </v>
   <v>       0.00757576 </v>
   <v>       0.00757576 </v>
   <v>       0.00757576 </v>
   <v>       0.00757576 </v>
   <v>       0.00757576 </v>
   <v>       0.00757576 </v>
   <v>       0.00757576 </v>
   <v>       0.00757576 </v>
   <v>       0.00757576 </v>
   <v>       0.00757576 </v>
   <v>       0.00757576 </v>
   <v>       0.00757576 </v>
   <v>       0.00757576 </v>
   <v>       0.00757576 </v>
   <v>       0.00757576 </v>
   <v>       0.00378788 </v>
   <v>       0.00757576 </v>
   <v>       0.00757576 </v>
   <v>       0.00757576 </v>
   <v>       0.00757576 </v>
   <v>       0.00757576 </v>
   <v>       0.00757576 </v>
   <v>       0.00757576 </v>
   <v>       0.00757576 </v>
   <v>       0.00757576 </v>
   <v>       0.00757576 </v>
   <v>       0.00757576 </v>
   <v>       0.00757576 </v>
   <v>       0.00757576 </v>
   <v>       0.00757576 </v>
   <v>       0.00757576 </v>
   <v>       0.00757576 </v>
   <v>       0.00757576 </v>
   <v>       0.00757576 </v>
   <v>       0.00757576 </v>
   <v>       0.00757576 </v>
   <v>       0.00757576 </v>
   <v>       0.00757576 </v>
   <v>       0.00757576 </v>
   <v>       0.00757576 </v>
   <v>       0.00757576 </v>
   <v>       0.00757576 </v>
   <v>       0.00757576 </v>
   <v>       0.00757576 </v>
   <v>       0.00757576 </v>
   <v>       0.00757576 </v>
   <v>       0.00757576 </v>
   <v>       0.00757576 </v>
   <v>       0.00757576 </v>
   <v>       0.00757576 </v>
   <v>       0.00757576 </v>
   <v>       0.00757576 </v>
   <v>       0.00757576 </v>
   <v>       0.00757576 </v>
   <v>       0.00757576 </v>
   <v>       0.00757576 </v>
   <v>       0.00757576 </v>
   <v>       0.00757576 </v>
   <v>       0.00757576 </v>
   <v>       0.00757576 </v>
   <v>       0.00757576 </v>
   <v>       0.00757576 </v>
   <v>       0.00757576 </v>
   <v>       0.00757576 </v>
   <v>       0.00757576 </v>
   <v>       0.00757576 </v>
   <v>       0.00757576 </v>
   <v>       0.00757576 </v>
   <v>       0.00757576 </v>
   <v>       0.00757576 </v>
   <v>       0.00757576 </v>
   <v>       0.00757576 </v>
   <v>       0.00757576 </v>
   <v>       0.00757576 </v>
   <v>       0.00757576 </v>
   <v>       0.00757576 </v>
   <v>       0.00757576 </v>
   <v>       0.00757576 </v>
   <v>       0.00757576 </v>
   <v>       0.00757576 </v>
   <v>       0.00757576 </v>
   <v>       0.00757576 </v>
   <v>       0.00757576 </v>
   <v>       0.00757576 </v>
   <v>       0.00757576 </v>
   <v>       0.00757576 </v>
   <v>       0.00757576 </v>
   <v>       0.00378788 </v>
   <v>       0.00757576 </v>
   <v>       0.00757576 </v>
   <v>       0.00757576 </v>
   <v>       0.00757576 </v>
   <v>       0.00757576 </v>
   <v>       0.00757576 </v>
   <v>       0.00757576 </v>
   <v>       0.00757576 </v>
   <v>       0.00757576 </v>
   <v>       0.00757576 </v>
   <v>       0.00757576 </v>
   <v>       0.00757576 </v>
   <v>       0.00757576 </v>
   <v>       0.00757576 </v>
   <v>       0.00757576 </v>
   <v>       0.00757576 </v>
   <v>       0.00757576 </v>
   <v>       0.00757576 </v>
   <v>       0.00757576 </v>
   <v>       0.00757576 </v>
   <v>       0.00757576 </v>
   <v>       0.00757576 </v>
   <v>       0.00757576 </v>
   <v>       0.00757576 </v>
   <v>       0.00757576 </v>
   <v>       0.00757576 </v>
   <v>       0.00757576 </v>
   <v>       0.00378788 </v>
   <v>       0.00757576 </v>
   <v>       0.00757576 </v>
   <v>       0.00757576 </v>
   <v>       0.00757576 </v>
   <v>       0.00757576 </v>
  </varray>
 </kpoints>
 <parameters>
  <separator name="general" >
   <i type="string" name="SYSTEM">unknown system</i>
   <i type="logical" name="LCOMPAT"> F  </i>
  </separator>
  <separator name="electronic" >
   <i type="string" name="PREC">accura</i>
   <i name="ENMAX">    520.00000000</i>
   <i name="ENAUG">   1040.00000000</i>
   <i name="EDIFF">      0.00000100</i>
   <i type="int" name="IALGO">    58</i>
   <i type="int" name="IWAVPR">    10</i>
   <i type="int" name="NBANDS">    60</i>
   <i name="NELECT">    100.00000000</i>
   <i type="int" name="TURBO">     0</i>
   <i type="int" name="IRESTART">     0</i>
   <i type="int" name="NREBOOT">     0</i>
   <i type="int" name="NMIN">     0</i>
   <i name="EREF">      0.00000000</i>
   <separator name="electronic smearing" >
    <i type="int" name="ISMEAR">     0</i>
    <i name="SIGMA">      0.01000000</i>
    <i name="KSPACING">      0.22000000</i>
    <i type="logical" name="KGAMMA"> T  </i>
   </separator>
   <separator name="electronic projectors" >
    <i type="logical" name="LREAL"> F  </i>
    <v name="ROPT">      0.00000000      0.00000000</v>
    <i type="int" name="LMAXPAW">  -100</i>
    <i type="int" name="LMAXMIX">     4</i>
    <i type="logical" name="NLSPLINE"> F  </i>
   </separator>
   <separator name="electronic startup" >
    <i type="int" name="ISTART">     1</i>
    <i type="int" name="ICHARG">     0</i>
    <i type="int" name="INIWAV">     1</i>
   </separator>
   <separator name="electronic spin" >
    <i type="int" name="ISPIN">     1</i>
    <i type="logical" name="LNONCOLLINEAR"> F  </i>
    <v name="MAGMOM">      0.00000000      0.00000000      0.00000000      0.00000000      0.00000000      0.00000000      0.00000000      0.00000000      0.00000000      0.00000000      0.00000000      0.00000000</v>
    <i name="NUPDOWN">     -1.00000000</i>
    <i type="logical" name="LSORBIT"> F  </i>
    <v name="SAXIS">      0.00000000      0.00000000      1.00000000</v>
    <i type="logical" name="LSPIRAL"> F  </i>
    <v name="QSPIRAL">      0.00000000      0.00000000      0.00000000</v>
    <i type="logical" name="LZEROZ"> F  </i>
   </separator>
   <separator name="electronic exchange-correlation" >
    <i type="logical" name="LASPH"> T  </i>
    <i type="logical" name="LMETAGGA"> F  </i>
   </separator>
   <separator name="electronic convergence" >
    <i type="int" name="NELM">   200</i>
    <i type="int" name="NELMDL">     0</i>
    <i type="int" name="NELMIN">     2</i>
    <i name="ENINI">    520.00000000</i>
    <separator name="electronic convergence detail" >
     <i type="logical" name="LDIAG"> T  </i>
     <i type="logical" name="LSUBROT"> F  </i>
     <i name="WEIMIN">      0.00000000</i>
     <i name="EBREAK">      0.00000000</i>
     <i name="DEPER">      0.30000000</i>
     <i type="int" name="NRMM">     4</i>
     <i name="TIME">      0.40000000</i>
    </separator>
   </separator>
   <separator name="electronic mixer" >
    <i name="AMIX">      0.40000000</i>
    <i name="BMIX">      1.00000000</i>
    <i name="AMIN">      0.10000000</i>
    <i name="AMIX_MAG">      1.60000000</i>
    <i name="BMIX_MAG">      1.00000000</i>
    <separator name="electronic mixer details" >
     <i type="int" name="IMIX">     4</i>
     <i type="logical" name="MIXFIRST"> F  </i>
     <i type="int" name="MAXMIX">   -45</i>
     <i name="WC">    100.00000000</i>
     <i type="int" name="INIMIX">     1</i>
     <i type="int" name="MIXPRE">     1</i>
     <i type="int" name="MREMOVE">     5</i>
    </separator>
   </separator>
   <separator name="electronic dipolcorrection" >
    <i type="logical" name="LDIPOL"> F  </i>
    <i type="logical" name="LMONO"> F  </i>
    <i type="int" name="IDIPOL">     0</i>
    <i name="EPSILON">      1.00000000</i>
    <v name="DIPOL">   -100.00000000   -100.00000000   -100.00000000</v>
    <i name="EFIELD">      0.00000000</i>
   </separator>
  </separator>
  <separator name="grids" >
   <i type="int" name="NGX">    20</i>
   <i type="int" name="NGY">    36</i>
   <i type="int" name="NGZ">    70</i>
   <i type="int" name="NGXF">    40</i>
   <i type="int" name="NGYF">    72</i>
   <i type="int" name="NGZF">   140</i>
   <i type="logical" name="ADDGRID"> F  </i>
  </separator>
  <separator name="ionic" >
   <i type="int" name="NSW">     0</i>
   <i type="int" name="IBRION">    -1</i>
   <i type="int" name="MDALGO">     0</i>
   <i type="int" name="ISIF">     3</i>
   <i name="PSTRESS">      0.00000000</i>
   <i name="EDIFFG">     -0.03000000</i>
   <i type="int" name="NFREE">     1</i>
   <i name="POTIM">      0.50000000</i>
   <i name="SMASS">     -3.00000000</i>
   <i name="SCALEE">      1.00000000</i>
  </separator>
  <separator name="ionic md" >
   <i name="TEBEG">      0.00010000</i>
   <i name="TEEND">      0.00010000</i>
   <i type="int" name="NBLOCK">     1</i>
   <i type="int" name="KBLOCK">     1</i>
   <i type="int" name="NPACO">   256</i>
   <i name="APACO">     16.00000000</i>
  </separator>
  <separator name="symmetry" >
   <i type="int" name="ISYM">     0</i>
   <i name="SYMPREC">      0.00001000</i>
  </separator>
  <separator name="dos" >
   <i type="int" name="LORBIT">     0</i>
   <v name="RWIGS">     -1.00000000     -1.00000000</v>
   <i type="int" name="NEDOS">   301</i>
   <i name="EMIN">     10.00000000</i>
   <i name="EMAX">    -10.00000000</i>
   <i name="EFERMI">      0.00000000</i>
  </separator>
  <separator name="writing" >
   <i type="int" name="NWRITE">     2</i>
   <i type="logical" name="LWAVE"> T  </i>
   <i type="logical" name="LDOWNSAMPLE"> F  </i>
   <i type="logical" name="LCHARG"> T  </i>
   <i type="logical" name="LPARD"> F  </i>
   <i type="logical" name="LVTOT"> F  </i>
   <i type="logical" name="LVHAR"> T  </i>
   <i type="logical" name="LELF"> T  </i>
   <i type="logical" name="LOPTICS"> F  </i>
   <v name="STM">      0.00000000      0.00000000      0.00000000      0.00000000      0.00000000      0.00000000      0.00000000</v>
  </separator>
  <separator name="performance" >
   <i type="int" name="NPAR">     4</i>
   <i type="int" name="NSIM">     4</i>
   <i type="int" name="NBLK">    -1</i>
   <i type="logical" name="LPLANE"> T  </i>
   <i type="logical" name="LSCALAPACK"> T  </i>
   <i type="logical" name="LSCAAWARE"> F  </i>
   <i type="logical" name="LSCALU"> F  </i>
   <i type="logical" name="LASYNC"> F  </i>
   <i type="logical" name="LORBITALREAL"> F  </i>
  </separator>
  <separator name="miscellaneous" >
   <i type="int" name="IDIOT">     3</i>
   <i type="int" name="ISPECIAL">     0</i>
   <i type="logical" name="LMUSIC"> F  </i>
   <v name="POMASS">     54.93800000     16.00000000</v>
   <v name="DARWINR">      0.00000000      0.00000000</v>
   <v name="DARWINV">      1.00000000      1.00000000</v>
   <i type="logical" name="LCORR"> T  </i>
  </separator>
  <i type="logical" name="GGA_COMPAT"> T  </i>
  <i type="logical" name="LBERRY"> F  </i>
  <i type="int" name="ICORELEVEL">     0</i>
  <i type="logical" name="LDAU"> F  </i>
  <i type="int" name="I_CONSTRAINED_M">     0</i>
  <separator name="electronic exchange-correlation" >
   <i type="string" name="GGA">PE</i>
   <i type="int" name="VOSKOWN">     0</i>
   <i type="logical" name="LHFCALC"> F  </i>
   <i type="string" name="PRECFOCK"></i>
   <i type="logical" name="LSYMGRAD"> F  </i>
   <i type="logical" name="LHFONE"> F  </i>
   <i type="logical" name="LRHFCALC"> F  </i>
   <i type="logical" name="LTHOMAS"> F  </i>
   <i type="logical" name="LMODELHF"> F  </i>
   <i name="ENCUT4O">     -1.00000000</i>
   <i type="int" name="EXXOEP">     0</i>
   <i type="int" name="FOURORBIT">     0</i>
   <i name="AEXX">      0.00000000</i>
   <i name="HFALPHA">      0.00000000</i>
   <i name="MCALPHA">      0.00000000</i>
   <i name="ALDAX">      1.00000000</i>
   <i name="AGGAX">      1.00000000</i>
   <i name="ALDAC">      1.00000000</i>
   <i name="AGGAC">      1.00000000</i>
   <i type="int" name="NKREDX">     1</i>
   <i type="int" name="NKREDY">     1</i>
   <i type="int" name="NKREDZ">     1</i>
   <i type="logical" name="SHIFTRED"> F  </i>
   <i type="logical" name="ODDONLY"> F  </i>
   <i type="logical" name="EVENONLY"> F  </i>
   <i type="int" name="LMAXFOCK">     0</i>
   <i type="int" name="NMAXFOCKAE">     0</i>
   <i type="logical" name="LFOCKAEDFT"> F  </i>
   <i name="HFSCREEN">      0.00000000</i>
   <i name="HFSCREENC">      0.00000000</i>
   <i type="int" name="NBANDSGWLOW">     0</i>
  </separator>
  <separator name="vdW DFT" >
   <i type="logical" name="LUSE_VDW"> F  </i>
   <i name="Zab_VDW">     -0.84910000</i>
   <i name="PARAM1">      0.12340000</i>
   <i name="PARAM2">      1.00000000</i>
   <i name="PARAM3">      0.00000000</i>
  </separator>
  <separator name="model GW" >
   <i type="int" name="MODEL_GW">     0</i>
   <i name="MODEL_EPS0">      5.78354765</i>
   <i name="MODEL_ALPHA">      1.00000000</i>
  </separator>
  <separator name="linear response parameters" >
   <i type="logical" name="LEPSILON"> F  </i>
   <i type="logical" name="LRPA"> F  </i>
   <i type="logical" name="LNABLA"> F  </i>
   <i type="logical" name="LVEL"> F  </i>
   <i type="int" name="KINTER">     0</i>
   <i name="CSHIFT">      0.10000000</i>
   <i name="OMEGAMAX">     -1.00000000</i>
   <i name="DEG_THRESHOLD">      0.00200000</i>
   <i name="RTIME">     -0.10000000</i>
   <i name="WPLASMAI">      0.00000000</i>
   <v name="DFIELD">      0.00000000      0.00000000      0.00000000</v>
   <v name="WPLASMA">      0.00000000      0.00000000      0.00000000      0.00000000      0.00000000      0.00000000      0.00000000      0.00000000      0.00000000</v>
  </separator>
  <separator name="orbital magnetization" >
   <i type="logical" name="NUCIND"> F  </i>
   <v name="MAGPOS">      0.00000000      0.00000000      0.00000000</v>
   <i type="logical" name="LNICSALL"> T  </i>
   <i type="logical" name="ORBITALMAG"> F  </i>
   <i type="logical" name="LMAGBLOCH"> F  </i>
   <i type="logical" name="LCHIMAG"> F  </i>
   <i type="logical" name="LGAUGE"> T  </i>
   <i type="int" name="MAGATOM">     0</i>
   <v name="MAGDIPOL">      0.00000000      0.00000000      0.00000000</v>
   <v name="AVECCONST">      0.00000000      0.00000000      0.00000000</v>
  </separator>
  <separator name="response functions" >
   <i type="logical" name="LADDER"> F  </i>
   <i type="logical" name="LRPAFORCE"> F  </i>
   <i type="logical" name="LFXC"> F  </i>
   <i type="logical" name="LHARTREE"> T  </i>
   <i type="int" name="IBSE">     0</i>
   <v type="int" name="KPOINT">    -1     0     0     0</v>
   <i type="logical" name="LTCTE"> F  </i>
   <i type="logical" name="LTETE"> F  </i>
   <i type="logical" name="LTRIPLET"> F  </i>
   <i type="logical" name="LFXCEPS"> F  </i>
   <i type="logical" name="LFXHEG"> F  </i>
   <i type="int" name="NATURALO">     2</i>
   <i type="logical" name="L2ORDER"> F  </i>
   <i type="logical" name="LMP2LT"> F  </i>
   <i type="logical" name="LUSEW"> F  </i>
   <i name="ENCUTGW">     -2.00000000</i>
   <i name="ENCUTGWSOFT">     -2.00000000</i>
   <i name="ENCUTLF">     -1.00000000</i>
   <i type="int" name="LMAXMP2">    -1</i>
   <i name="SCISSOR">      0.00000000</i>
   <i type="int" name="NOMEGA">     0</i>
   <i type="int" name="NOMEGAR">     0</i>
   <i type="int" name="NBANDSGW">    -1</i>
   <i type="int" name="NBANDSO">    -1</i>
   <i type="int" name="NBANDSV">    -1</i>
   <i type="int" name="NELM">   200</i>
   <i type="int" name="NELMHF">     1</i>
   <i type="int" name="DIM">     3</i>
   <i type="int" name="ANTIRES">     0</i>
   <i name="OMEGAMAX">    -30.00000000</i>
   <i name="OMEGAMIN">    -30.00000000</i>
   <i name="OMEGATL">   -200.00000000</i>
   <i type="int" name="OMEGAGRID">   140</i>
   <i name="CSHIFT">     -0.10000000</i>
   <i type="logical" name="SELFENERGY"> F  </i>
   <i type="logical" name="LSPECTRAL"> F  </i>
   <i type="logical" name="LSPECTRALGW"> F  </i>
   <i type="logical" name="LSINGLES"> F  </i>
   <i type="logical" name="LFERMIGW"> F  </i>
   <i type="logical" name="ODDONLYGW"> F  </i>
   <i type="logical" name="EVENONLYGW"> F  </i>
   <i type="int" name="NKREDLFX">     1</i>
   <i type="int" name="NKREDLFY">     1</i>
   <i type="int" name="NKREDLFZ">     1</i>
   <i type="int" name="MAXMEM">  2800</i>
   <i type="int" name="TELESCOPE">     0</i>
   <i type="int" name="TAUPAR">     1</i>
   <i type="int" name="OMEGAPAR">    -1</i>
   <i name="LAMBDA">      1.00000000</i>
  </separator>
  <separator name="External order field" >
   <i name="OFIELD_KAPPA">      0.00000000</i>
   <v name="OFIELD_K">      0.00000000      0.00000000      0.00000000</v>
   <i name="OFIELD_Q6_NEAR">      0.00000000</i>
   <i name="OFIELD_Q6_FAR">      0.00000000</i>
   <i name="OFIELD_A">      0.00000000</i>
  </separator>
 </parameters>
 <atominfo>
  <atoms>      12 </atoms>
  <types>       2 </types>
  <array name="atoms" >
   <dimension dim="1">ion</dimension>
   <field type="string">element</field>
   <field type="int">atomtype</field>
   <set>
    <rc><c>Mn</c><c>   1</c></rc>
    <rc><c>Mn</c><c>   1</c></rc>
    <rc><c>Mn</c><c>   1</c></rc>
    <rc><c>Mn</c><c>   1</c></rc>
    <rc><c>O </c><c>   2</c></rc>
    <rc><c>O </c><c>   2</c></rc>
    <rc><c>O </c><c>   2</c></rc>
    <rc><c>O </c><c>   2</c></rc>
    <rc><c>O </c><c>   2</c></rc>
    <rc><c>O </c><c>   2</c></rc>
    <rc><c>O </c><c>   2</c></rc>
    <rc><c>O </c><c>   2</c></rc>
   </set>
  </array>
  <array name="atomtypes" >
   <dimension dim="1">type</dimension>
   <field type="int">atomspertype</field>
   <field type="string">element</field>
   <field>mass</field>
   <field>valence</field>
   <field type="string">pseudopotential</field>
   <set>
    <rc><c>   4</c><c>Mn</c><c>     54.93800000</c><c>     13.00000000</c><c>  PAW_PBE Mn_pv 02Aug2007               </c></rc>
    <rc><c>   8</c><c>O </c><c>     16.00000000</c><c>      6.00000000</c><c>  PAW_PBE O 08Apr2002                   </c></rc>
   </set>
  </array>
 </atominfo>
 <structure name="initialpos" >
  <crystal>
   <varray name="basis" >
    <v>       2.67343134      -0.00000214       0.00000193 </v>
    <v>      -0.00000514       4.78845608       0.00047365 </v>
    <v>      -0.00000467       0.00109331       9.03565783 </v>
   </varray>
   <i name="volume">    115.67095304 </i>
   <varray name="rec_basis" >
    <v>       0.37405112       0.00000040       0.00000019 </v>
    <v>       0.00000017       0.20883558      -0.00002527 </v>
    <v>      -0.00000008      -0.00001095       0.11067263 </v>
   </varray>
  </crystal>
  <varray name="positions" >
   <v>       0.25000808       0.05106347       0.85771224 </v>
   <v>       0.74999143       0.94892762       0.14229722 </v>
   <v>       0.75000506       0.55116678       0.64231230 </v>
   <v>       0.24998634       0.44884310       0.35768407 </v>
   <v>       0.24999600       0.70162017       0.52248718 </v>
   <v>       0.75000384       0.20160076       0.97747113 </v>
   <v>       0.25000099       0.79837007       0.02253209 </v>
   <v>       0.74999289       0.29837572       0.47749408 </v>
   <v>       0.24998599       0.15957218       0.23334774 </v>
   <v>       0.25002524       0.34049184       0.73337061 </v>
   <v>       0.74997905       0.65951422       0.26664578 </v>
   <v>       0.75002509       0.84045507       0.76664656 </v>
  </varray>
 </structure>
 <calculation>
  <scstep>
   <time name="total">   53.13  112.43</time>
   <energy>
    <i name="alphaZ">    480.94162395 </i>
    <i name="ewald">  -7502.72245163 </i>
    <i name="hartreedc">  -3668.07534744 </i>
    <i name="XCdc">    589.57991149 </i>
    <i name="pawpsdc">  13081.16920307 </i>
    <i name="pawaedc"> -13348.42280969 </i>
    <i name="eentropy">     -0.00057990 </i>
    <i name="bandstr">  -1316.47779055 </i>
    <i name="atom">  11559.90638050 </i>
    <i name="e_fr_energy">   -124.10186018 </i>
    <i name="e_wo_entrp">   -124.10128027 </i>
    <i name="e_0_energy">   -124.10157022 </i>
   </energy>
  </scstep>
  <scstep>
   <time name="total">   39.64  126.46</time>
   <energy>
    <i name="e_fr_energy">   -124.10186200 </i>
    <i name="e_wo_entrp">   -124.10128204 </i>
    <i name="e_0_energy">   -124.10157202 </i>
   </energy>
  </scstep>
  <scstep>
   <time name="total">   50.59  124.23</time>
   <energy>
    <i name="e_fr_energy">   -124.10186788 </i>
    <i name="e_wo_entrp">   -124.10128789 </i>
    <i name="e_0_energy">   -124.10157789 </i>
   </energy>
  </scstep>
  <scstep>
   <time name="total">   53.28  146.54</time>
   <energy>
    <i name="alphaZ">    480.94162395 </i>
    <i name="ewald">  -7502.72245163 </i>
    <i name="hartreedc">  -3668.11067789 </i>
    <i name="XCdc">    589.58049824 </i>
    <i name="pawpsdc">  13081.45779173 </i>
    <i name="pawaedc"> -13348.71616631 </i>
    <i name="eentropy">     -0.00058003 </i>
    <i name="bandstr">  -1316.43828727 </i>
    <i name="atom">  11559.90638050 </i>
    <i name="e_fr_energy">   -124.10186867 </i>
    <i name="e_wo_entrp">   -124.10128864 </i>
    <i name="e_0_energy">   -124.10157865 </i>
   </energy>
  </scstep>
  <structure>
   <crystal>
    <varray name="basis" >
     <v>       2.67343134      -0.00000214       0.00000193 </v>
     <v>      -0.00000514       4.78845608       0.00047365 </v>
     <v>      -0.00000467       0.00109331       9.03565783 </v>
    </varray>
    <i name="volume">    115.67095304 </i>
    <varray name="rec_basis" >
     <v>       0.37405112       0.00000040       0.00000019 </v>
     <v>       0.00000017       0.20883558      -0.00002527 </v>
     <v>      -0.00000008      -0.00001095       0.11067263 </v>
    </varray>
   </crystal>
   <varray name="positions" >
    <v>       0.25000808       0.05106347       0.85771224 </v>
    <v>       0.74999143       0.94892762       0.14229722 </v>
    <v>       0.75000506       0.55116678       0.64231230 </v>
    <v>       0.24998634       0.44884310       0.35768407 </v>
    <v>       0.24999600       0.70162017       0.52248718 </v>
    <v>       0.75000384       0.20160076       0.97747113 </v>
    <v>       0.25000099       0.79837007       0.02253209 </v>
    <v>       0.74999289       0.29837572       0.47749408 </v>
    <v>       0.24998599       0.15957218       0.23334774 </v>
    <v>       0.25002524       0.34049184       0.73337061 </v>
    <v>       0.74997905       0.65951422       0.26664578 </v>
    <v>       0.75002509       0.84045507       0.76664656 </v>
   </varray>
  </structure>
  <varray name="forces" >
   <v>       0.00003855       0.00320643       0.03488503 </v>
   <v>       0.00008418      -0.00254639      -0.03378871 </v>
   <v>       0.00003250       0.00410632       0.01458152 </v>
   <v>       0.00010997      -0.00502255      -0.01691890 </v>
   <v>       0.00013582      -0.00620190      -0.01145849 </v>
   <v>      -0.00000258      -0.01789197       0.01431258 </v>
   <v>      -0.00011950       0.01885605      -0.00868599 </v>
   <v>      -0.00000665       0.00632941       0.01119038 </v>
   <v>       0.00011567      -0.03175719      -0.02263671 </v>
   <v>      -0.00035816       0.00934308       0.01484292 </v>
   <v>       0.00027247      -0.00728982      -0.01789823 </v>
   <v>      -0.00030227       0.02886852       0.02157459 </v>
  </varray>
  <varray name="stress" >
   <v>       1.05255201       0.00753763      -0.00115477 </v>
   <v>       0.00753767       0.84882517      -0.09390010 </v>
   <v>      -0.00115517      -0.09387622       0.18622688 </v>
  </varray>
  <energy>
   <i name="e_fr_energy">   -124.10186867 </i>
   <i name="e_wo_entrp">   -124.10157865 </i>
   <i name="e_0_energy">     -0.00058003 </i>
  </energy>
  <time name="totalsc">  298.10  735.66</time>
  <eigenvalues>
   <array>
    <dimension dim="1">band</dimension>
    <dimension dim="2">kpoint</dimension>
    <dimension dim="3">spin</dimension>
    <field>eigene</field>
    <field>occ</field>
    <set>
     <set comment="spin 1">
      <set comment="kpoint 1">
       <r>  -46.2063    1.0000 </r>
       <r>  -46.2001    1.0000 </r>
       <r>  -46.1878    1.0000 </r>
       <r>  -46.1818    1.0000 </r>
       <r>  -46.0942    1.0000 </r>
       <r>  -46.0859    1.0000 </r>
       <r>  -46.0678    1.0000 </r>
       <r>  -46.0563    1.0000 </r>
       <r>  -46.0531    1.0000 </r>
       <r>  -46.0438    1.0000 </r>
       <r>  -46.0330    1.0000 </r>
       <r>  -46.0203    1.0000 </r>
       <r>  -16.9726    1.0000 </r>
       <r>  -16.2899    1.0000 </r>
       <r>  -16.0553    1.0000 </r>
       <r>  -15.4980    1.0000 </r>
       <r>  -15.3318    1.0000 </r>
       <r>  -15.0027    1.0000 </r>
       <r>  -14.4577    1.0000 </r>
       <r>  -14.4193    1.0000 </r>
       <r>   -3.5028    1.0000 </r>
       <r>   -2.7660    1.0000 </r>
       <r>   -2.5419    1.0000 </r>
       <r>   -2.4054    1.0000 </r>
       <r>   -1.8108    1.0000 </r>
       <r>   -1.6757    1.0000 </r>
       <r>   -1.5027    1.0000 </r>
       <r>   -0.8149    1.0000 </r>
       <r>   -0.7725    1.0000 </r>
       <r>   -0.7603    1.0000 </r>
       <r>   -0.7381    1.0000 </r>
       <r>   -0.4966    1.0000 </r>
       <r>   -0.1868    1.0000 </r>
       <r>    0.3704    1.0000 </r>
       <r>    0.6320    1.0000 </r>
       <r>    0.8081    1.0000 </r>
       <r>    1.2889    1.0000 </r>
       <r>    1.4398    1.0000 </r>
       <r>    1.7616    1.0000 </r>
       <r>    2.0848    1.0000 </r>
       <r>    2.3509    1.0000 </r>
       <r>    2.5569    1.0000 </r>
       <r>    2.5820    1.0000 </r>
       <r>    2.8306    1.0000 </r>
       <r>    3.5413    1.0000 </r>
       <r>    3.8125    1.0000 </r>
       <r>    3.9302    1.0000 </r>
       <r>    4.0361    1.0000 </r>
       <r>    4.0597    1.0000 </r>
       <r>    4.2598    1.0000 </r>
       <r>    4.2945    1.0000 </r>
       <r>    4.4658    1.0000 </r>
       <r>    4.7375    0.0000 </r>
       <r>    5.1677    0.0000 </r>
       <r>    5.6111    0.0000 </r>
       <r>    5.9985    0.0000 </r>
       <r>    6.5547    0.0000 </r>
       <r>    7.4752    0.0000 </r>
       <r>    7.8212    0.0000 </r>
       <r>    7.8816    0.0000 </r>
      </set>
      <set comment="kpoint 2">
       <r>  -46.2029    1.0000 </r>
       <r>  -46.1966    1.0000 </r>
       <r>  -46.1844    1.0000 </r>
       <r>  -46.1791    1.0000 </r>
       <r>  -46.0952    1.0000 </r>
       <r>  -46.0861    1.0000 </r>
       <r>  -46.0855    1.0000 </r>
       <r>  -46.0748    1.0000 </r>
       <r>  -46.0684    1.0000 </r>
       <r>  -46.0603    1.0000 </r>
       <r>  -46.0315    1.0000 </r>
       <r>  -46.0199    1.0000 </r>
       <r>  -16.8785    1.0000 </r>
       <r>  -16.2270    1.0000 </r>
       <r>  -15.9755    1.0000 </r>
       <r>  -15.4708    1.0000 </r>
       <r>  -15.3305    1.0000 </r>
       <r>  -15.0005    1.0000 </r>
       <r>  -14.4509    1.0000 </r>
       <r>  -14.4208    1.0000 </r>
       <r>   -3.3781    1.0000 </r>
       <r>   -2.6901    1.0000 </r>
       <r>   -2.4686    1.0000 </r>
       <r>   -2.3283    1.0000 </r>
       <r>   -1.7509    1.0000 </r>
       <r>   -1.7231    1.0000 </r>
       <r>   -1.6492    1.0000 </r>
       <r>   -1.1358    1.0000 </r>
       <r>   -0.9688    1.0000 </r>
       <r>   -0.7652    1.0000 </r>
       <r>   -0.6584    1.0000 </r>
       <r>   -0.3495    1.0000 </r>
       <r>    0.1929    1.0000 </r>
       <r>    0.2777    1.0000 </r>
       <r>    0.4967    1.0000 </r>
       <r>    0.6552    1.0000 </r>
       <r>    0.7883    1.0000 </r>
       <r>    1.6499    1.0000 </r>
       <r>    1.6577    1.0000 </r>
       <r>    1.9263    1.0000 </r>
       <r>    1.9718    1.0000 </r>
       <r>    2.3428    1.0000 </r>
       <r>    2.6356    1.0000 </r>
       <r>    2.9577    1.0000 </r>
       <r>    3.4933    1.0000 </r>
       <r>    3.8531    1.0000 </r>
       <r>    3.9007    1.0000 </r>
       <r>    4.0312    1.0000 </r>
       <r>    4.1266    1.0000 </r>
       <r>    4.3256    1.0000 </r>
       <r>    4.4035    1.0000 </r>
       <r>    4.4669    1.0000 </r>
       <r>    4.9243    0.0000 </r>
       <r>    5.2717    0.0000 </r>
       <r>    5.6140    0.0000 </r>
       <r>    5.9911    0.0000 </r>
       <r>    6.6356    0.0000 </r>
       <r>    7.3884    0.0000 </r>
       <r>    7.6597    0.0000 </r>
       <r>    7.8502    0.0000 </r>
      </set>
      <set comment="kpoint 3">
       <r>  -46.1937    1.0000 </r>
       <r>  -46.1875    1.0000 </r>
       <r>  -46.1754    1.0000 </r>
       <r>  -46.1721    1.0000 </r>
       <r>  -46.1351    1.0000 </r>
       <r>  -46.1275    1.0000 </r>
       <r>  -46.1233    1.0000 </r>
       <r>  -46.1155    1.0000 </r>
       <r>  -46.0801    1.0000 </r>
       <r>  -46.0698    1.0000 </r>
       <r>  -46.0296    1.0000 </r>
       <r>  -46.0193    1.0000 </r>
       <r>  -16.6125    1.0000 </r>
       <r>  -16.0573    1.0000 </r>
       <r>  -15.7519    1.0000 </r>
       <r>  -15.4043    1.0000 </r>
       <r>  -15.3284    1.0000 </r>
       <r>  -14.9929    1.0000 </r>
       <r>  -14.4377    1.0000 </r>
       <r>  -14.4255    1.0000 </r>
       <r>   -3.0387    1.0000 </r>
       <r>   -2.5268    1.0000 </r>
       <r>   -2.2967    1.0000 </r>
       <r>   -2.1675    1.0000 </r>
       <r>   -1.9174    1.0000 </r>
       <r>   -1.9129    1.0000 </r>
       <r>   -1.5267    1.0000 </r>
       <r>   -1.4830    1.0000 </r>
       <r>   -1.1251    1.0000 </r>
       <r>   -0.6895    1.0000 </r>
       <r>   -0.5609    1.0000 </r>
       <r>   -0.4202    1.0000 </r>
       <r>   -0.3699    1.0000 </r>
       <r>   -0.0797    1.0000 </r>
       <r>    0.6215    1.0000 </r>
       <r>    0.6405    1.0000 </r>
       <r>    0.6965    1.0000 </r>
       <r>    0.9883    1.0000 </r>
       <r>    1.2396    1.0000 </r>
       <r>    1.5102    1.0000 </r>
       <r>    2.0269    1.0000 </r>
       <r>    2.1420    1.0000 </r>
       <r>    2.2450    1.0000 </r>
       <r>    3.1355    1.0000 </r>
       <r>    3.6077    1.0000 </r>
       <r>    3.7478    1.0000 </r>
       <r>    4.0194    1.0000 </r>
       <r>    4.0795    1.0000 </r>
       <r>    4.2342    1.0000 </r>
       <r>    4.2682    1.0000 </r>
       <r>    4.5161    1.0000 </r>
       <r>    4.6886    0.0000 </r>
       <r>    5.2447    0.0000 </r>
       <r>    5.4562    0.0000 </r>
       <r>    5.6397    0.0000 </r>
       <r>    5.9460    0.0000 </r>
       <r>    6.8288    0.0000 </r>
       <r>    7.1159    0.0000 </r>
       <r>    7.2700    0.0000 </r>
       <r>    7.7097    0.0000 </r>
      </set>
      <set comment="kpoint 4">
       <r>  -46.1989    1.0000 </r>
       <r>  -46.1914    1.0000 </r>
       <r>  -46.1874    1.0000 </r>
       <r>  -46.1813    1.0000 </r>
       <r>  -46.1797    1.0000 </r>
       <r>  -46.1739    1.0000 </r>
       <r>  -46.1623    1.0000 </r>
       <r>  -46.1617    1.0000 </r>
       <r>  -46.0709    1.0000 </r>
       <r>  -46.0605    1.0000 </r>
       <r>  -46.0288    1.0000 </r>
       <r>  -46.0198    1.0000 </r>
       <r>  -16.2242    1.0000 </r>
       <r>  -15.8328    1.0000 </r>
       <r>  -15.4322    1.0000 </r>
       <r>  -15.3347    1.0000 </r>
       <r>  -15.3281    1.0000 </r>
       <r>  -14.9751    1.0000 </r>
       <r>  -14.4452    1.0000 </r>
       <r>  -14.4324    1.0000 </r>
       <r>   -2.6107    1.0000 </r>
       <r>   -2.3918    1.0000 </r>
       <r>   -2.2220    1.0000 </r>
       <r>   -2.2095    1.0000 </r>
       <r>   -2.0022    1.0000 </r>
       <r>   -1.9978    1.0000 </r>
       <r>   -1.6103    1.0000 </r>
       <r>   -1.5062    1.0000 </r>
       <r>   -1.4686    1.0000 </r>
       <r>   -1.0695    1.0000 </r>
       <r>   -0.9456    1.0000 </r>
       <r>   -0.3667    1.0000 </r>
       <r>   -0.2133    1.0000 </r>
       <r>   -0.1056    1.0000 </r>
       <r>    0.1384    1.0000 </r>
       <r>    0.3973    1.0000 </r>
       <r>    0.7733    1.0000 </r>
       <r>    0.8453    1.0000 </r>
       <r>    0.9075    1.0000 </r>
       <r>    0.9742    1.0000 </r>
       <r>    1.8231    1.0000 </r>
       <r>    1.8262    1.0000 </r>
       <r>    2.2816    1.0000 </r>
       <r>    2.7327    1.0000 </r>
       <r>    3.6647    1.0000 </r>
       <r>    3.9563    1.0000 </r>
       <r>    4.0679    1.0000 </r>
       <r>    4.2081    1.0000 </r>
       <r>    4.2966    1.0000 </r>
       <r>    4.3307    1.0000 </r>
       <r>    4.6924    0.0000 </r>
       <r>    4.7303    0.0000 </r>
       <r>    5.4926    0.0000 </r>
       <r>    5.5632    0.0000 </r>
       <r>    5.6932    0.0000 </r>
       <r>    5.8247    0.0000 </r>
       <r>    6.9057    0.0000 </r>
       <r>    6.9898    0.0000 </r>
       <r>    7.0225    0.0000 </r>
       <r>    7.5579    0.0000 </r>
      </set>
      <set comment="kpoint 5">
       <r>  -46.2559    1.0000 </r>
       <r>  -46.2478    1.0000 </r>
       <r>  -46.2441    1.0000 </r>
       <r>  -46.2394    1.0000 </r>
       <r>  -46.1694    1.0000 </r>
       <r>  -46.1626    1.0000 </r>
       <r>  -46.1540    1.0000 </r>
       <r>  -46.1535    1.0000 </r>
       <r>  -46.0590    1.0000 </r>
       <r>  -46.0486    1.0000 </r>
       <r>  -46.0305    1.0000 </r>
       <r>  -46.0225    1.0000 </r>
       <r>  -15.8013    1.0000 </r>
       <r>  -15.6211    1.0000 </r>
       <r>  -15.3476    1.0000 </r>
       <r>  -15.2977    1.0000 </r>
       <r>  -15.0765    1.0000 </r>
       <r>  -14.9297    1.0000 </r>
       <r>  -14.4919    1.0000 </r>
       <r>  -14.4789    1.0000 </r>
       <r>   -2.6090    1.0000 </r>
       <r>   -2.3511    1.0000 </r>
       <r>   -2.2821    1.0000 </r>
       <r>   -2.2356    1.0000 </r>
       <r>   -2.1991    1.0000 </r>
       <r>   -1.9839    1.0000 </r>
       <r>   -1.9006    1.0000 </r>
       <r>   -1.8155    1.0000 </r>
       <r>   -1.4771    1.0000 </r>
       <r>   -1.3989    1.0000 </r>
       <r>   -0.6170    1.0000 </r>
       <r>   -0.4637    1.0000 </r>
       <r>   -0.1883    1.0000 </r>
       <r>   -0.0047    1.0000 </r>
       <r>    0.1346    1.0000 </r>
       <r>    0.1382    1.0000 </r>
       <r>    0.4670    1.0000 </r>
       <r>    0.8171    1.0000 </r>
       <r>    0.8815    1.0000 </r>
       <r>    1.0608    1.0000 </r>
       <r>    1.4397    1.0000 </r>
       <r>    1.6619    1.0000 </r>
       <r>    2.0456    1.0000 </r>
       <r>    2.2639    1.0000 </r>
       <r>    3.7483    1.0000 </r>
       <r>    3.8814    1.0000 </r>
       <r>    3.9502    1.0000 </r>
       <r>    4.3760    1.0000 </r>
       <r>    4.5945    1.0000 </r>
       <r>    4.6161    1.0000 </r>
       <r>    4.7165    0.0000 </r>
       <r>    4.8097    0.0000 </r>
       <r>    5.5358    0.0000 </r>
       <r>    5.5640    0.0000 </r>
       <r>    5.6043    0.0000 </r>
       <r>    5.6833    0.0000 </r>
       <r>    6.8610    0.0000 </r>
       <r>    6.9281    0.0000 </r>
       <r>    7.0950    0.0000 </r>
       <r>    7.5000    0.0000 </r>
      </set>
      <set comment="kpoint 6">
       <r>  -46.2899    1.0000 </r>
       <r>  -46.2820    1.0000 </r>
       <r>  -46.2774    1.0000 </r>
       <r>  -46.2750    1.0000 </r>
       <r>  -46.1623    1.0000 </r>
       <r>  -46.1546    1.0000 </r>
       <r>  -46.1498    1.0000 </r>
       <r>  -46.1484    1.0000 </r>
       <r>  -46.0478    1.0000 </r>
       <r>  -46.0375    1.0000 </r>
       <r>  -46.0352    1.0000 </r>
       <r>  -46.0282    1.0000 </r>
       <r>  -15.4726    1.0000 </r>
       <r>  -15.4700    1.0000 </r>
       <r>  -15.3861    1.0000 </r>
       <r>  -15.3239    1.0000 </r>
       <r>  -14.8161    1.0000 </r>
       <r>  -14.7754    1.0000 </r>
       <r>  -14.6329    1.0000 </r>
       <r>  -14.5776    1.0000 </r>
       <r>   -2.8897    1.0000 </r>
       <r>   -2.7619    1.0000 </r>
       <r>   -2.3360    1.0000 </r>
       <r>   -2.2787    1.0000 </r>
       <r>   -2.0510    1.0000 </r>
       <r>   -1.9482    1.0000 </r>
       <r>   -1.8756    1.0000 </r>
       <r>   -1.8345    1.0000 </r>
       <r>   -1.4842    1.0000 </r>
       <r>   -1.1699    1.0000 </r>
       <r>   -1.1457    1.0000 </r>
       <r>   -0.7210    1.0000 </r>
       <r>   -0.1368    1.0000 </r>
       <r>   -0.0379    1.0000 </r>
       <r>    0.2599    1.0000 </r>
       <r>    0.5965    1.0000 </r>
       <r>    0.7426    1.0000 </r>
       <r>    0.9209    1.0000 </r>
       <r>    0.9389    1.0000 </r>
       <r>    1.0016    1.0000 </r>
       <r>    1.0695    1.0000 </r>
       <r>    1.3790    1.0000 </r>
       <r>    1.7198    1.0000 </r>
       <r>    2.0273    1.0000 </r>
       <r>    3.6659    1.0000 </r>
       <r>    3.7657    1.0000 </r>
       <r>    4.1352    1.0000 </r>
       <r>    4.3220    1.0000 </r>
       <r>    4.8366    0.0000 </r>
       <r>    4.8443    0.0000 </r>
       <r>    4.9048    0.0000 </r>
       <r>    4.9218    0.0000 </r>
       <r>    5.3827    0.0000 </r>
       <r>    5.4040    0.0000 </r>
       <r>    5.4833    0.0000 </r>
       <r>    5.5588    0.0000 </r>
       <r>    6.8793    0.0000 </r>
       <r>    6.8942    0.0000 </r>
       <r>    7.2206    0.0000 </r>
       <r>    7.3696    0.0000 </r>
      </set>
      <set comment="kpoint 7">
       <r>  -46.2057    1.0000 </r>
       <r>  -46.1992    1.0000 </r>
       <r>  -46.1887    1.0000 </r>
       <r>  -46.1828    1.0000 </r>
       <r>  -46.0942    1.0000 </r>
       <r>  -46.0859    1.0000 </r>
       <r>  -46.0676    1.0000 </r>
       <r>  -46.0563    1.0000 </r>
       <r>  -46.0530    1.0000 </r>
       <r>  -46.0440    1.0000 </r>
       <r>  -46.0323    1.0000 </r>
       <r>  -46.0207    1.0000 </r>
       <r>  -16.9117    1.0000 </r>
       <r>  -16.2408    1.0000 </r>
       <r>  -16.1158    1.0000 </r>
       <r>  -15.5544    1.0000 </r>
       <r>  -15.2987    1.0000 </r>
       <r>  -15.0090    1.0000 </r>
       <r>  -14.4803    1.0000 </r>
       <r>  -14.4470    1.0000 </r>
       <r>   -3.4449    1.0000 </r>
       <r>   -2.6436    1.0000 </r>
       <r>   -2.6015    1.0000 </r>
       <r>   -2.4413    1.0000 </r>
       <r>   -1.9206    1.0000 </r>
       <r>   -1.4731    1.0000 </r>
       <r>   -1.4676    1.0000 </r>
       <r>   -0.8145    1.0000 </r>
       <r>   -0.7920    1.0000 </r>
       <r>   -0.6987    1.0000 </r>
       <r>   -0.6448    1.0000 </r>
       <r>   -0.5150    1.0000 </r>
       <r>   -0.2453    1.0000 </r>
       <r>    0.4907    1.0000 </r>
       <r>    0.6901    1.0000 </r>
       <r>    0.8341    1.0000 </r>
       <r>    1.2298    1.0000 </r>
       <r>    1.3766    1.0000 </r>
       <r>    1.5409    1.0000 </r>
       <r>    2.0762    1.0000 </r>
       <r>    2.1586    1.0000 </r>
       <r>    2.5335    1.0000 </r>
       <r>    2.5616    1.0000 </r>
       <r>    2.6271    1.0000 </r>
       <r>    3.6131    1.0000 </r>
       <r>    3.8424    1.0000 </r>
       <r>    3.8995    1.0000 </r>
       <r>    3.9616    1.0000 </r>
       <r>    4.1813    1.0000 </r>
       <r>    4.2787    1.0000 </r>
       <r>    4.3550    1.0000 </r>
       <r>    4.4091    1.0000 </r>
       <r>    4.9427    0.0000 </r>
       <r>    5.1182    0.0000 </r>
       <r>    5.5250    0.0000 </r>
       <r>    5.9795    0.0000 </r>
       <r>    6.6503    0.0000 </r>
       <r>    7.5777    0.0000 </r>
       <r>    7.8137    0.0000 </r>
       <r>    7.8841    0.0000 </r>
      </set>
      <set comment="kpoint 8">
       <r>  -46.2023    1.0000 </r>
       <r>  -46.1958    1.0000 </r>
       <r>  -46.1852    1.0000 </r>
       <r>  -46.1801    1.0000 </r>
       <r>  -46.0951    1.0000 </r>
       <r>  -46.0868    1.0000 </r>
       <r>  -46.0846    1.0000 </r>
       <r>  -46.0747    1.0000 </r>
       <r>  -46.0684    1.0000 </r>
       <r>  -46.0603    1.0000 </r>
       <r>  -46.0310    1.0000 </r>
       <r>  -46.0202    1.0000 </r>
       <r>  -16.8191    1.0000 </r>
       <r>  -16.1799    1.0000 </r>
       <r>  -16.0366    1.0000 </r>
       <r>  -15.5240    1.0000 </r>
       <r>  -15.2959    1.0000 </r>
       <r>  -15.0069    1.0000 </r>
       <r>  -14.4734    1.0000 </r>
       <r>  -14.4471    1.0000 </r>
       <r>   -3.3247    1.0000 </r>
       <r>   -2.5779    1.0000 </r>
       <r>   -2.5314    1.0000 </r>
       <r>   -2.3625    1.0000 </r>
       <r>   -1.8976    1.0000 </r>
       <r>   -1.6288    1.0000 </r>
       <r>   -1.4645    1.0000 </r>
       <r>   -1.1308    1.0000 </r>
       <r>   -1.0838    1.0000 </r>
       <r>   -0.6365    1.0000 </r>
       <r>   -0.6313    1.0000 </r>
       <r>   -0.2717    1.0000 </r>
       <r>    0.0992    1.0000 </r>
       <r>    0.2879    1.0000 </r>
       <r>    0.6562    1.0000 </r>
       <r>    0.6612    1.0000 </r>
       <r>    0.8075    1.0000 </r>
       <r>    1.4998    1.0000 </r>
       <r>    1.6064    1.0000 </r>
       <r>    1.7864    1.0000 </r>
       <r>    1.9752    1.0000 </r>
       <r>    2.3469    1.0000 </r>
       <r>    2.3489    1.0000 </r>
       <r>    2.8173    1.0000 </r>
       <r>    3.5802    1.0000 </r>
       <r>    3.8695    1.0000 </r>
       <r>    3.8889    1.0000 </r>
       <r>    4.1349    1.0000 </r>
       <r>    4.1413    1.0000 </r>
       <r>    4.2389    1.0000 </r>
       <r>    4.5047    1.0000 </r>
       <r>    4.5516    1.0000 </r>
       <r>    4.9907    0.0000 </r>
       <r>    5.2384    0.0000 </r>
       <r>    5.5244    0.0000 </r>
       <r>    5.9685    0.0000 </r>
       <r>    6.7250    0.0000 </r>
       <r>    7.4500    0.0000 </r>
       <r>    7.6389    0.0000 </r>
       <r>    7.8835    0.0000 </r>
      </set>
      <set comment="kpoint 9">
       <r>  -46.1932    1.0000 </r>
       <r>  -46.1868    1.0000 </r>
       <r>  -46.1762    1.0000 </r>
       <r>  -46.1731    1.0000 </r>
       <r>  -46.1350    1.0000 </r>
       <r>  -46.1272    1.0000 </r>
       <r>  -46.1232    1.0000 </r>
       <r>  -46.1159    1.0000 </r>
       <r>  -46.0797    1.0000 </r>
       <r>  -46.0700    1.0000 </r>
       <r>  -46.0293    1.0000 </r>
       <r>  -46.0195    1.0000 </r>
       <r>  -16.5576    1.0000 </r>
       <r>  -16.0156    1.0000 </r>
       <r>  -15.8174    1.0000 </r>
       <r>  -15.4488    1.0000 </r>
       <r>  -15.2867    1.0000 </r>
       <r>  -14.9990    1.0000 </r>
       <r>  -14.4590    1.0000 </r>
       <r>  -14.4473    1.0000 </r>
       <r>   -3.0030    1.0000 </r>
       <r>   -2.4461    1.0000 </r>
       <r>   -2.3783    1.0000 </r>
       <r>   -2.1851    1.0000 </r>
       <r>   -1.9474    1.0000 </r>
       <r>   -1.9099    1.0000 </r>
       <r>   -1.5115    1.0000 </r>
       <r>   -1.3495    1.0000 </r>
       <r>   -1.2806    1.0000 </r>
       <r>   -0.7052    1.0000 </r>
       <r>   -0.4857    1.0000 </r>
       <r>   -0.3138    1.0000 </r>
       <r>   -0.2565    1.0000 </r>
       <r>   -0.0002    1.0000 </r>
       <r>    0.4334    1.0000 </r>
       <r>    0.6796    1.0000 </r>
       <r>    0.8406    1.0000 </r>
       <r>    0.9527    1.0000 </r>
       <r>    1.1893    1.0000 </r>
       <r>    1.5498    1.0000 </r>
       <r>    1.7793    1.0000 </r>
       <r>    2.0920    1.0000 </r>
       <r>    2.1584    1.0000 </r>
       <r>    2.9625    1.0000 </r>
       <r>    3.6782    1.0000 </r>
       <r>    3.8322    1.0000 </r>
       <r>    4.0175    1.0000 </r>
       <r>    4.0582    1.0000 </r>
       <r>    4.2548    1.0000 </r>
       <r>    4.4861    1.0000 </r>
       <r>    4.5101    1.0000 </r>
       <r>    4.7075    0.0000 </r>
       <r>    5.1888    0.0000 </r>
       <r>    5.4626    0.0000 </r>
       <r>    5.5442    0.0000 </r>
       <r>    5.9073    0.0000 </r>
       <r>    6.9116    0.0000 </r>
       <r>    7.1637    0.0000 </r>
       <r>    7.2236    0.0000 </r>
       <r>    7.7066    0.0000 </r>
      </set>
      <set comment="kpoint 10">
       <r>  -46.1990    1.0000 </r>
       <r>  -46.1913    1.0000 </r>
       <r>  -46.1879    1.0000 </r>
       <r>  -46.1820    1.0000 </r>
       <r>  -46.1790    1.0000 </r>
       <r>  -46.1728    1.0000 </r>
       <r>  -46.1638    1.0000 </r>
       <r>  -46.1611    1.0000 </r>
       <r>  -46.0706    1.0000 </r>
       <r>  -46.0606    1.0000 </r>
       <r>  -46.0286    1.0000 </r>
       <r>  -46.0199    1.0000 </r>
       <r>  -16.1779    1.0000 </r>
       <r>  -15.8000    1.0000 </r>
       <r>  -15.5254    1.0000 </r>
       <r>  -15.3681    1.0000 </r>
       <r>  -15.2537    1.0000 </r>
       <r>  -14.9802    1.0000 </r>
       <r>  -14.4612    1.0000 </r>
       <r>  -14.4490    1.0000 </r>
       <r>   -2.6215    1.0000 </r>
       <r>   -2.3483    1.0000 </r>
       <r>   -2.3348    1.0000 </r>
       <r>   -2.1564    1.0000 </r>
       <r>   -2.0267    1.0000 </r>
       <r>   -2.0089    1.0000 </r>
       <r>   -1.6493    1.0000 </r>
       <r>   -1.6468    1.0000 </r>
       <r>   -1.4013    1.0000 </r>
       <r>   -0.9593    1.0000 </r>
       <r>   -0.8161    1.0000 </r>
       <r>   -0.4996    1.0000 </r>
       <r>   -0.1093    1.0000 </r>
       <r>    0.0106    1.0000 </r>
       <r>    0.1730    1.0000 </r>
       <r>    0.3995    1.0000 </r>
       <r>    0.7042    1.0000 </r>
       <r>    0.7738    1.0000 </r>
       <r>    0.9676    1.0000 </r>
       <r>    1.0502    1.0000 </r>
       <r>    1.5071    1.0000 </r>
       <r>    1.9211    1.0000 </r>
       <r>    2.3085    1.0000 </r>
       <r>    2.7106    1.0000 </r>
       <r>    3.7326    1.0000 </r>
       <r>    3.9417    1.0000 </r>
       <r>    4.0470    1.0000 </r>
       <r>    4.2357    1.0000 </r>
       <r>    4.3338    1.0000 </r>
       <r>    4.4684    1.0000 </r>
       <r>    4.6606    0.0597 </r>
       <r>    4.7742    0.0000 </r>
       <r>    5.3472    0.0000 </r>
       <r>    5.5959    0.0000 </r>
       <r>    5.6203    0.0000 </r>
       <r>    5.7569    0.0000 </r>
       <r>    6.9597    0.0000 </r>
       <r>    6.9609    0.0000 </r>
       <r>    7.0930    0.0000 </r>
       <r>    7.5581    0.0000 </r>
      </set>
      <set comment="kpoint 11">
       <r>  -46.2560    1.0000 </r>
       <r>  -46.2477    1.0000 </r>
       <r>  -46.2442    1.0000 </r>
       <r>  -46.2397    1.0000 </r>
       <r>  -46.1691    1.0000 </r>
       <r>  -46.1621    1.0000 </r>
       <r>  -46.1546    1.0000 </r>
       <r>  -46.1534    1.0000 </r>
       <r>  -46.0588    1.0000 </r>
       <r>  -46.0488    1.0000 </r>
       <r>  -46.0304    1.0000 </r>
       <r>  -46.0226    1.0000 </r>
       <r>  -15.7698    1.0000 </r>
       <r>  -15.5987    1.0000 </r>
       <r>  -15.3758    1.0000 </r>
       <r>  -15.3190    1.0000 </r>
       <r>  -15.0608    1.0000 </r>
       <r>  -14.9321    1.0000 </r>
       <r>  -14.5004    1.0000 </r>
       <r>  -14.4884    1.0000 </r>
       <r>   -2.6360    1.0000 </r>
       <r>   -2.3935    1.0000 </r>
       <r>   -2.2966    1.0000 </r>
       <r>   -2.2583    1.0000 </r>
       <r>   -2.2290    1.0000 </r>
       <r>   -1.9734    1.0000 </r>
       <r>   -1.9406    1.0000 </r>
       <r>   -1.8397    1.0000 </r>
       <r>   -1.4395    1.0000 </r>
       <r>   -1.4376    1.0000 </r>
       <r>   -0.6204    1.0000 </r>
       <r>   -0.3624    1.0000 </r>
       <r>   -0.2253    1.0000 </r>
       <r>   -0.0856    1.0000 </r>
       <r>    0.1800    1.0000 </r>
       <r>    0.2982    1.0000 </r>
       <r>    0.5408    1.0000 </r>
       <r>    0.6763    1.0000 </r>
       <r>    0.9790    1.0000 </r>
       <r>    0.9983    1.0000 </r>
       <r>    1.3804    1.0000 </r>
       <r>    1.7059    1.0000 </r>
       <r>    2.1836    1.0000 </r>
       <r>    2.3014    1.0000 </r>
       <r>    3.7620    1.0000 </r>
       <r>    3.9418    1.0000 </r>
       <r>    3.9614    1.0000 </r>
       <r>    4.3926    1.0000 </r>
       <r>    4.5998    1.0000 </r>
       <r>    4.6354    0.9784 </r>
       <r>    4.7138    0.0000 </r>
       <r>    4.8283    0.0000 </r>
       <r>    5.3629    0.0000 </r>
       <r>    5.5196    0.0000 </r>
       <r>    5.5943    0.0000 </r>
       <r>    5.6225    0.0000 </r>
       <r>    6.8865    0.0000 </r>
       <r>    6.9221    0.0000 </r>
       <r>    7.1895    0.0000 </r>
       <r>    7.5094    0.0000 </r>
      </set>
      <set comment="kpoint 12">
       <r>  -46.2899    1.0000 </r>
       <r>  -46.2820    1.0000 </r>
       <r>  -46.2775    1.0000 </r>
       <r>  -46.2751    1.0000 </r>
       <r>  -46.1622    1.0000 </r>
       <r>  -46.1544    1.0000 </r>
       <r>  -46.1498    1.0000 </r>
       <r>  -46.1483    1.0000 </r>
       <r>  -46.0477    1.0000 </r>
       <r>  -46.0377    1.0000 </r>
       <r>  -46.0351    1.0000 </r>
       <r>  -46.0282    1.0000 </r>
       <r>  -15.4737    1.0000 </r>
       <r>  -15.4477    1.0000 </r>
       <r>  -15.3888    1.0000 </r>
       <r>  -15.3303    1.0000 </r>
       <r>  -14.8141    1.0000 </r>
       <r>  -14.7802    1.0000 </r>
       <r>  -14.6303    1.0000 </r>
       <r>  -14.5831    1.0000 </r>
       <r>   -2.8993    1.0000 </r>
       <r>   -2.7827    1.0000 </r>
       <r>   -2.3272    1.0000 </r>
       <r>   -2.2813    1.0000 </r>
       <r>   -2.1313    1.0000 </r>
       <r>   -2.0218    1.0000 </r>
       <r>   -1.8714    1.0000 </r>
       <r>   -1.8680    1.0000 </r>
       <r>   -1.5122    1.0000 </r>
       <r>   -1.3973    1.0000 </r>
       <r>   -0.9633    1.0000 </r>
       <r>   -0.7138    1.0000 </r>
       <r>   -0.0796    1.0000 </r>
       <r>    0.0013    1.0000 </r>
       <r>    0.3859    1.0000 </r>
       <r>    0.4254    1.0000 </r>
       <r>    0.6935    1.0000 </r>
       <r>    0.8046    1.0000 </r>
       <r>    0.9263    1.0000 </r>
       <r>    1.0440    1.0000 </r>
       <r>    1.2519    1.0000 </r>
       <r>    1.5854    1.0000 </r>
       <r>    1.8195    1.0000 </r>
       <r>    2.0865    1.0000 </r>
       <r>    3.7056    1.0000 </r>
       <r>    3.7790    1.0000 </r>
       <r>    4.1624    1.0000 </r>
       <r>    4.3488    1.0000 </r>
       <r>    4.8350    0.0000 </r>
       <r>    4.8380    0.0000 </r>
       <r>    4.8924    0.0000 </r>
       <r>    4.9136    0.0000 </r>
       <r>    5.2664    0.0000 </r>
       <r>    5.2952    0.0000 </r>
       <r>    5.4905    0.0000 </r>
       <r>    5.4932    0.0000 </r>
       <r>    6.8970    0.0000 </r>
       <r>    6.9189    0.0000 </r>
       <r>    7.2997    0.0000 </r>
       <r>    7.4184    0.0000 </r>
      </set>
      <set comment="kpoint 13">
       <r>  -46.2899    1.0000 </r>
       <r>  -46.2820    1.0000 </r>
       <r>  -46.2775    1.0000 </r>
       <r>  -46.2751    1.0000 </r>
       <r>  -46.1622    1.0000 </r>
       <r>  -46.1544    1.0000 </r>
       <r>  -46.1498    1.0000 </r>
       <r>  -46.1483    1.0000 </r>
       <r>  -46.0477    1.0000 </r>
       <r>  -46.0377    1.0000 </r>
       <r>  -46.0352    1.0000 </r>
       <r>  -46.0282    1.0000 </r>
       <r>  -15.4737    1.0000 </r>
       <r>  -15.4477    1.0000 </r>
       <r>  -15.3887    1.0000 </r>
       <r>  -15.3303    1.0000 </r>
       <r>  -14.8141    1.0000 </r>
       <r>  -14.7802    1.0000 </r>
       <r>  -14.6303    1.0000 </r>
       <r>  -14.5831    1.0000 </r>
       <r>   -2.8993    1.0000 </r>
       <r>   -2.7827    1.0000 </r>
       <r>   -2.3272    1.0000 </r>
       <r>   -2.2813    1.0000 </r>
       <r>   -2.1314    1.0000 </r>
       <r>   -2.0218    1.0000 </r>
       <r>   -1.8715    1.0000 </r>
       <r>   -1.8679    1.0000 </r>
       <r>   -1.5121    1.0000 </r>
       <r>   -1.3973    1.0000 </r>
       <r>   -0.9634    1.0000 </r>
       <r>   -0.7137    1.0000 </r>
       <r>   -0.0796    1.0000 </r>
       <r>    0.0013    1.0000 </r>
       <r>    0.3859    1.0000 </r>
       <r>    0.4253    1.0000 </r>
       <r>    0.6935    1.0000 </r>
       <r>    0.8046    1.0000 </r>
       <r>    0.9263    1.0000 </r>
       <r>    1.0441    1.0000 </r>
       <r>    1.2519    1.0000 </r>
       <r>    1.5854    1.0000 </r>
       <r>    1.8194    1.0000 </r>
       <r>    2.0865    1.0000 </r>
       <r>    3.7056    1.0000 </r>
       <r>    3.7790    1.0000 </r>
       <r>    4.1624    1.0000 </r>
       <r>    4.3489    1.0000 </r>
       <r>    4.8352    0.0000 </r>
       <r>    4.8377    0.0000 </r>
       <r>    4.8924    0.0000 </r>
       <r>    4.9136    0.0000 </r>
       <r>    5.2664    0.0000 </r>
       <r>    5.2952    0.0000 </r>
       <r>    5.4905    0.0000 </r>
       <r>    5.4932    0.0000 </r>
       <r>    6.8969    0.0000 </r>
       <r>    6.9189    0.0000 </r>
       <r>    7.2998    0.0000 </r>
       <r>    7.4184    0.0000 </r>
      </set>
      <set comment="kpoint 14">
       <r>  -46.2560    1.0000 </r>
       <r>  -46.2477    1.0000 </r>
       <r>  -46.2442    1.0000 </r>
       <r>  -46.2397    1.0000 </r>
       <r>  -46.1691    1.0000 </r>
       <r>  -46.1621    1.0000 </r>
       <r>  -46.1546    1.0000 </r>
       <r>  -46.1534    1.0000 </r>
       <r>  -46.0588    1.0000 </r>
       <r>  -46.0488    1.0000 </r>
       <r>  -46.0304    1.0000 </r>
       <r>  -46.0226    1.0000 </r>
       <r>  -15.7698    1.0000 </r>
       <r>  -15.5987    1.0000 </r>
       <r>  -15.3757    1.0000 </r>
       <r>  -15.3190    1.0000 </r>
       <r>  -15.0608    1.0000 </r>
       <r>  -14.9321    1.0000 </r>
       <r>  -14.5004    1.0000 </r>
       <r>  -14.4884    1.0000 </r>
       <r>   -2.6359    1.0000 </r>
       <r>   -2.3935    1.0000 </r>
       <r>   -2.2966    1.0000 </r>
       <r>   -2.2583    1.0000 </r>
       <r>   -2.2290    1.0000 </r>
       <r>   -1.9734    1.0000 </r>
       <r>   -1.9406    1.0000 </r>
       <r>   -1.8397    1.0000 </r>
       <r>   -1.4396    1.0000 </r>
       <r>   -1.4376    1.0000 </r>
       <r>   -0.6205    1.0000 </r>
       <r>   -0.3624    1.0000 </r>
       <r>   -0.2252    1.0000 </r>
       <r>   -0.0855    1.0000 </r>
       <r>    0.1800    1.0000 </r>
       <r>    0.2981    1.0000 </r>
       <r>    0.5408    1.0000 </r>
       <r>    0.6763    1.0000 </r>
       <r>    0.9790    1.0000 </r>
       <r>    0.9983    1.0000 </r>
       <r>    1.3804    1.0000 </r>
       <r>    1.7059    1.0000 </r>
       <r>    2.1835    1.0000 </r>
       <r>    2.3013    1.0000 </r>
       <r>    3.7620    1.0000 </r>
       <r>    3.9418    1.0000 </r>
       <r>    3.9614    1.0000 </r>
       <r>    4.3927    1.0000 </r>
       <r>    4.5997    1.0000 </r>
       <r>    4.6353    0.9787 </r>
       <r>    4.7138    0.0000 </r>
       <r>    4.8283    0.0000 </r>
       <r>    5.3629    0.0000 </r>
       <r>    5.5196    0.0000 </r>
       <r>    5.5944    0.0000 </r>
       <r>    5.6225    0.0000 </r>
       <r>    6.8865    0.0000 </r>
       <r>    6.9222    0.0000 </r>
       <r>    7.1896    0.0000 </r>
       <r>    7.5094    0.0000 </r>
      </set>
      <set comment="kpoint 15">
       <r>  -46.1990    1.0000 </r>
       <r>  -46.1913    1.0000 </r>
       <r>  -46.1879    1.0000 </r>
       <r>  -46.1820    1.0000 </r>
       <r>  -46.1790    1.0000 </r>
       <r>  -46.1728    1.0000 </r>
       <r>  -46.1638    1.0000 </r>
       <r>  -46.1611    1.0000 </r>
       <r>  -46.0706    1.0000 </r>
       <r>  -46.0606    1.0000 </r>
       <r>  -46.0286    1.0000 </r>
       <r>  -46.0199    1.0000 </r>
       <r>  -16.1779    1.0000 </r>
       <r>  -15.8000    1.0000 </r>
       <r>  -15.5254    1.0000 </r>
       <r>  -15.3681    1.0000 </r>
       <r>  -15.2537    1.0000 </r>
       <r>  -14.9802    1.0000 </r>
       <r>  -14.4612    1.0000 </r>
       <r>  -14.4491    1.0000 </r>
       <r>   -2.6215    1.0000 </r>
       <r>   -2.3483    1.0000 </r>
       <r>   -2.3347    1.0000 </r>
       <r>   -2.1563    1.0000 </r>
       <r>   -2.0267    1.0000 </r>
       <r>   -2.0089    1.0000 </r>
       <r>   -1.6493    1.0000 </r>
       <r>   -1.6467    1.0000 </r>
       <r>   -1.4014    1.0000 </r>
       <r>   -0.9594    1.0000 </r>
       <r>   -0.8160    1.0000 </r>
       <r>   -0.4995    1.0000 </r>
       <r>   -0.1093    1.0000 </r>
       <r>    0.0105    1.0000 </r>
       <r>    0.1730    1.0000 </r>
       <r>    0.3995    1.0000 </r>
       <r>    0.7043    1.0000 </r>
       <r>    0.7737    1.0000 </r>
       <r>    0.9677    1.0000 </r>
       <r>    1.0502    1.0000 </r>
       <r>    1.5070    1.0000 </r>
       <r>    1.9212    1.0000 </r>
       <r>    2.3085    1.0000 </r>
       <r>    2.7106    1.0000 </r>
       <r>    3.7326    1.0000 </r>
       <r>    3.9418    1.0000 </r>
       <r>    4.0469    1.0000 </r>
       <r>    4.2356    1.0000 </r>
       <r>    4.3338    1.0000 </r>
       <r>    4.4683    1.0000 </r>
       <r>    4.6606    0.0591 </r>
       <r>    4.7742    0.0000 </r>
       <r>    5.3471    0.0000 </r>
       <r>    5.5959    0.0000 </r>
       <r>    5.6202    0.0000 </r>
       <r>    5.7569    0.0000 </r>
       <r>    6.9596    0.0000 </r>
       <r>    6.9610    0.0000 </r>
       <r>    7.0932    0.0000 </r>
       <r>    7.5580    0.0000 </r>
      </set>
      <set comment="kpoint 16">
       <r>  -46.1932    1.0000 </r>
       <r>  -46.1868    1.0000 </r>
       <r>  -46.1762    1.0000 </r>
       <r>  -46.1731    1.0000 </r>
       <r>  -46.1350    1.0000 </r>
       <r>  -46.1272    1.0000 </r>
       <r>  -46.1233    1.0000 </r>
       <r>  -46.1159    1.0000 </r>
       <r>  -46.0797    1.0000 </r>
       <r>  -46.0700    1.0000 </r>
       <r>  -46.0293    1.0000 </r>
       <r>  -46.0195    1.0000 </r>
       <r>  -16.5576    1.0000 </r>
       <r>  -16.0156    1.0000 </r>
       <r>  -15.8174    1.0000 </r>
       <r>  -15.4488    1.0000 </r>
       <r>  -15.2867    1.0000 </r>
       <r>  -14.9989    1.0000 </r>
       <r>  -14.4590    1.0000 </r>
       <r>  -14.4473    1.0000 </r>
       <r>   -3.0030    1.0000 </r>
       <r>   -2.4461    1.0000 </r>
       <r>   -2.3783    1.0000 </r>
       <r>   -2.1851    1.0000 </r>
       <r>   -1.9474    1.0000 </r>
       <r>   -1.9099    1.0000 </r>
       <r>   -1.5115    1.0000 </r>
       <r>   -1.3495    1.0000 </r>
       <r>   -1.2806    1.0000 </r>
       <r>   -0.7051    1.0000 </r>
       <r>   -0.4856    1.0000 </r>
       <r>   -0.3139    1.0000 </r>
       <r>   -0.2565    1.0000 </r>
       <r>   -0.0002    1.0000 </r>
       <r>    0.4334    1.0000 </r>
       <r>    0.6796    1.0000 </r>
       <r>    0.8406    1.0000 </r>
       <r>    0.9527    1.0000 </r>
       <r>    1.1892    1.0000 </r>
       <r>    1.5498    1.0000 </r>
       <r>    1.7793    1.0000 </r>
       <r>    2.0921    1.0000 </r>
       <r>    2.1584    1.0000 </r>
       <r>    2.9626    1.0000 </r>
       <r>    3.6783    1.0000 </r>
       <r>    3.8322    1.0000 </r>
       <r>    4.0175    1.0000 </r>
       <r>    4.0582    1.0000 </r>
       <r>    4.2548    1.0000 </r>
       <r>    4.4861    1.0000 </r>
       <r>    4.5100    1.0000 </r>
       <r>    4.7075    0.0000 </r>
       <r>    5.1888    0.0000 </r>
       <r>    5.4625    0.0000 </r>
       <r>    5.5442    0.0000 </r>
       <r>    5.9073    0.0000 </r>
       <r>    6.9116    0.0000 </r>
       <r>    7.1637    0.0000 </r>
       <r>    7.2236    0.0000 </r>
       <r>    8.0895    0.0000 </r>
      </set>
      <set comment="kpoint 17">
       <r>  -46.2023    1.0000 </r>
       <r>  -46.1958    1.0000 </r>
       <r>  -46.1852    1.0000 </r>
       <r>  -46.1801    1.0000 </r>
       <r>  -46.0950    1.0000 </r>
       <r>  -46.0868    1.0000 </r>
       <r>  -46.0846    1.0000 </r>
       <r>  -46.0747    1.0000 </r>
       <r>  -46.0684    1.0000 </r>
       <r>  -46.0603    1.0000 </r>
       <r>  -46.0310    1.0000 </r>
       <r>  -46.0202    1.0000 </r>
       <r>  -16.8191    1.0000 </r>
       <r>  -16.1799    1.0000 </r>
       <r>  -16.0366    1.0000 </r>
       <r>  -15.5240    1.0000 </r>
       <r>  -15.2959    1.0000 </r>
       <r>  -15.0069    1.0000 </r>
       <r>  -14.4734    1.0000 </r>
       <r>  -14.4471    1.0000 </r>
       <r>   -3.3247    1.0000 </r>
       <r>   -2.5779    1.0000 </r>
       <r>   -2.5314    1.0000 </r>
       <r>   -2.3625    1.0000 </r>
       <r>   -1.8976    1.0000 </r>
       <r>   -1.6288    1.0000 </r>
       <r>   -1.4645    1.0000 </r>
       <r>   -1.1308    1.0000 </r>
       <r>   -1.0838    1.0000 </r>
       <r>   -0.6365    1.0000 </r>
       <r>   -0.6313    1.0000 </r>
       <r>   -0.2718    1.0000 </r>
       <r>    0.0992    1.0000 </r>
       <r>    0.2879    1.0000 </r>
       <r>    0.6562    1.0000 </r>
       <r>    0.6612    1.0000 </r>
       <r>    0.8076    1.0000 </r>
       <r>    1.4998    1.0000 </r>
       <r>    1.6063    1.0000 </r>
       <r>    1.7864    1.0000 </r>
       <r>    1.9753    1.0000 </r>
       <r>    2.3470    1.0000 </r>
       <r>    2.3489    1.0000 </r>
       <r>    2.8173    1.0000 </r>
       <r>    3.5802    1.0000 </r>
       <r>    3.8695    1.0000 </r>
       <r>    3.8889    1.0000 </r>
       <r>    4.1349    1.0000 </r>
       <r>    4.1413    1.0000 </r>
       <r>    4.2389    1.0000 </r>
       <r>    4.5047    1.0000 </r>
       <r>    4.5516    1.0000 </r>
       <r>    4.9907    0.0000 </r>
       <r>    5.2384    0.0000 </r>
       <r>    5.5245    0.0000 </r>
       <r>    5.9685    0.0000 </r>
       <r>    6.7250    0.0000 </r>
       <r>    7.4501    0.0000 </r>
       <r>    7.8804    0.0000 </r>
       <r>    8.0195    0.0000 </r>
      </set>
      <set comment="kpoint 18">
       <r>  -46.2043    1.0000 </r>
       <r>  -46.1972    1.0000 </r>
       <r>  -46.1902    1.0000 </r>
       <r>  -46.1855    1.0000 </r>
       <r>  -46.0941    1.0000 </r>
       <r>  -46.0859    1.0000 </r>
       <r>  -46.0673    1.0000 </r>
       <r>  -46.0565    1.0000 </r>
       <r>  -46.0528    1.0000 </r>
       <r>  -46.0444    1.0000 </r>
       <r>  -46.0308    1.0000 </r>
       <r>  -46.0215    1.0000 </r>
       <r>  -16.7440    1.0000 </r>
       <r>  -16.2823    1.0000 </r>
       <r>  -16.1045    1.0000 </r>
       <r>  -15.7086    1.0000 </r>
       <r>  -15.2106    1.0000 </r>
       <r>  -15.0379    1.0000 </r>
       <r>  -14.5249    1.0000 </r>
       <r>  -14.5058    1.0000 </r>
       <r>   -3.2750    1.0000 </r>
       <r>   -2.7825    1.0000 </r>
       <r>   -2.4981    1.0000 </r>
       <r>   -2.4818    1.0000 </r>
       <r>   -1.8067    1.0000 </r>
       <r>   -1.4759    1.0000 </r>
       <r>   -1.1852    1.0000 </r>
       <r>   -0.8175    1.0000 </r>
       <r>   -0.8129    1.0000 </r>
       <r>   -0.6520    1.0000 </r>
       <r>   -0.5585    1.0000 </r>
       <r>   -0.2504    1.0000 </r>
       <r>   -0.2428    1.0000 </r>
       <r>    0.3129    1.0000 </r>
       <r>    0.8017    1.0000 </r>
       <r>    0.9034    1.0000 </r>
       <r>    1.1135    1.0000 </r>
       <r>    1.2664    1.0000 </r>
       <r>    1.4194    1.0000 </r>
       <r>    1.4705    1.0000 </r>
       <r>    2.2620    1.0000 </r>
       <r>    2.2998    1.0000 </r>
       <r>    2.4225    1.0000 </r>
       <r>    2.5058    1.0000 </r>
       <r>    3.7215    1.0000 </r>
       <r>    3.8382    1.0000 </r>
       <r>    3.8849    1.0000 </r>
       <r>    3.9363    1.0000 </r>
       <r>    4.0201    1.0000 </r>
       <r>    4.2651    1.0000 </r>
       <r>    4.5224    1.0000 </r>
       <r>    4.6767    0.0001 </r>
       <r>    4.9703    0.0000 </r>
       <r>    5.3120    0.0000 </r>
       <r>    5.3230    0.0000 </r>
       <r>    5.9037    0.0000 </r>
       <r>    6.8996    0.0000 </r>
       <r>    7.8195    0.0000 </r>
       <r>    7.8281    0.0000 </r>
       <r>    7.9444    0.0000 </r>
      </set>
      <set comment="kpoint 19">
       <r>  -46.2009    1.0000 </r>
       <r>  -46.1939    1.0000 </r>
       <r>  -46.1869    1.0000 </r>
       <r>  -46.1827    1.0000 </r>
       <r>  -46.0948    1.0000 </r>
       <r>  -46.0876    1.0000 </r>
       <r>  -46.0837    1.0000 </r>
       <r>  -46.0747    1.0000 </r>
       <r>  -46.0685    1.0000 </r>
       <r>  -46.0604    1.0000 </r>
       <r>  -46.0298    1.0000 </r>
       <r>  -46.0208    1.0000 </r>
       <r>  -16.6552    1.0000 </r>
       <r>  -16.2024    1.0000 </r>
       <r>  -16.0488    1.0000 </r>
       <r>  -15.6704    1.0000 </r>
       <r>  -15.2062    1.0000 </r>
       <r>  -15.0352    1.0000 </r>
       <r>  -14.5181    1.0000 </r>
       <r>  -14.5022    1.0000 </r>
       <r>   -3.1681    1.0000 </r>
       <r>   -2.7082    1.0000 </r>
       <r>   -2.4354    1.0000 </r>
       <r>   -2.4062    1.0000 </r>
       <r>   -1.8239    1.0000 </r>
       <r>   -1.6140    1.0000 </r>
       <r>   -1.2274    1.0000 </r>
       <r>   -1.1440    1.0000 </r>
       <r>   -1.0666    1.0000 </r>
       <r>   -0.6168    1.0000 </r>
       <r>   -0.5714    1.0000 </r>
       <r>   -0.0626    1.0000 </r>
       <r>    0.0807    1.0000 </r>
       <r>    0.3752    1.0000 </r>
       <r>    0.6698    1.0000 </r>
       <r>    0.6867    1.0000 </r>
       <r>    0.8329    1.0000 </r>
       <r>    1.3596    1.0000 </r>
       <r>    1.3715    1.0000 </r>
       <r>    1.5096    1.0000 </r>
       <r>    1.8923    1.0000 </r>
       <r>    2.1337    1.0000 </r>
       <r>    2.3154    1.0000 </r>
       <r>    2.4464    1.0000 </r>
       <r>    3.7015    1.0000 </r>
       <r>    3.8737    1.0000 </r>
       <r>    3.8830    1.0000 </r>
       <r>    4.0570    1.0000 </r>
       <r>    4.2087    1.0000 </r>
       <r>    4.3302    1.0000 </r>
       <r>    4.6161    1.0000 </r>
       <r>    4.7717    0.0000 </r>
       <r>    5.0011    0.0000 </r>
       <r>    5.3070    0.0000 </r>
       <r>    5.3404    0.0000 </r>
       <r>    5.8729    0.0000 </r>
       <r>    6.9677    0.0000 </r>
       <r>    7.5622    0.0000 </r>
       <r>    7.5667    0.0000 </r>
       <r>    7.9435    0.0000 </r>
      </set>
      <set comment="kpoint 20">
       <r>  -46.1920    1.0000 </r>
       <r>  -46.1850    1.0000 </r>
       <r>  -46.1780    1.0000 </r>
       <r>  -46.1754    1.0000 </r>
       <r>  -46.1348    1.0000 </r>
       <r>  -46.1266    1.0000 </r>
       <r>  -46.1229    1.0000 </r>
       <r>  -46.1169    1.0000 </r>
       <r>  -46.0790    1.0000 </r>
       <r>  -46.0702    1.0000 </r>
       <r>  -46.0285    1.0000 </r>
       <r>  -46.0199    1.0000 </r>
       <r>  -16.4061    1.0000 </r>
       <r>  -15.9819    1.0000 </r>
       <r>  -15.9004    1.0000 </r>
       <r>  -15.5732    1.0000 </r>
       <r>  -15.1910    1.0000 </r>
       <r>  -15.0258    1.0000 </r>
       <r>  -14.5023    1.0000 </r>
       <r>  -14.4923    1.0000 </r>
       <r>   -2.8950    1.0000 </r>
       <r>   -2.5477    1.0000 </r>
       <r>   -2.3154    1.0000 </r>
       <r>   -2.2324    1.0000 </r>
       <r>   -1.8989    1.0000 </r>
       <r>   -1.8754    1.0000 </r>
       <r>   -1.5897    1.0000 </r>
       <r>   -1.5397    1.0000 </r>
       <r>   -0.8851    1.0000 </r>
       <r>   -0.7203    1.0000 </r>
       <r>   -0.5554    1.0000 </r>
       <r>   -0.1342    1.0000 </r>
       <r>   -0.1101    1.0000 </r>
       <r>    0.1628    1.0000 </r>
       <r>    0.3966    1.0000 </r>
       <r>    0.7739    1.0000 </r>
       <r>    0.8603    1.0000 </r>
       <r>    0.9438    1.0000 </r>
       <r>    1.0855    1.0000 </r>
[...]
       <r>   -0.7371    1.0000 </r>
       <r>   -0.7336    1.0000 </r>
       <r>    0.1818    1.0000 </r>
       <r>    0.1855    1.0000 </r>
       <r>    0.3477    1.0000 </r>
       <r>    0.3516    1.0000 </r>
       <r>    0.5202    1.0000 </r>
       <r>    0.5232    1.0000 </r>
       <r>    1.0746    1.0000 </r>
       <r>    1.0760    1.0000 </r>
       <r>    1.5804    1.0000 </r>
       <r>    1.5845    1.0000 </r>
       <r>    2.3290    1.0000 </r>
       <r>    2.3362    1.0000 </r>
       <r>    4.0135    1.0000 </r>
       <r>    4.0186    1.0000 </r>
       <r>    4.2064    1.0000 </r>
       <r>    4.2084    1.0000 </r>
       <r>    4.6747    0.0002 </r>
       <r>    4.6751    0.0002 </r>
       <r>    4.8379    0.0000 </r>
       <r>    4.8403    0.0000 </r>
       <r>    5.2623    0.0000 </r>
       <r>    5.2667    0.0000 </r>
       <r>    5.2693    0.0000 </r>
       <r>    5.2705    0.0000 </r>
       <r>    7.1537    0.0000 </r>
       <r>    7.1559    0.0000 </r>
       <r>    7.2415    0.0000 </r>
       <r>    7.2450    0.0000 </r>
      </set>
      <set comment="kpoint 134">
       <r>  -46.2899    1.0000 </r>
       <r>  -46.2819    1.0000 </r>
       <r>  -46.2778    1.0000 </r>
       <r>  -46.2757    1.0000 </r>
       <r>  -46.1619    1.0000 </r>
       <r>  -46.1539    1.0000 </r>
       <r>  -46.1499    1.0000 </r>
       <r>  -46.1483    1.0000 </r>
       <r>  -46.0474    1.0000 </r>
       <r>  -46.0378    1.0000 </r>
       <r>  -46.0354    1.0000 </r>
       <r>  -46.0284    1.0000 </r>
       <r>  -15.4105    1.0000 </r>
       <r>  -15.4092    1.0000 </r>
       <r>  -15.3951    1.0000 </r>
       <r>  -15.3932    1.0000 </r>
       <r>  -14.7998    1.0000 </r>
       <r>  -14.7908    1.0000 </r>
       <r>  -14.6200    1.0000 </r>
       <r>  -14.6106    1.0000 </r>
       <r>   -2.7898    1.0000 </r>
       <r>   -2.7865    1.0000 </r>
       <r>   -2.6670    1.0000 </r>
       <r>   -2.6637    1.0000 </r>
       <r>   -2.0000    1.0000 </r>
       <r>   -1.9980    1.0000 </r>
       <r>   -1.9121    1.0000 </r>
       <r>   -1.9094    1.0000 </r>
       <r>   -1.3758    1.0000 </r>
       <r>   -1.3729    1.0000 </r>
       <r>   -1.1231    1.0000 </r>
       <r>   -1.1184    1.0000 </r>
       <r>    0.2375    1.0000 </r>
       <r>    0.2413    1.0000 </r>
       <r>    0.2943    1.0000 </r>
       <r>    0.2993    1.0000 </r>
       <r>    0.7039    1.0000 </r>
       <r>    0.7043    1.0000 </r>
       <r>    0.9114    1.0000 </r>
       <r>    0.9124    1.0000 </r>
       <r>    1.9120    1.0000 </r>
       <r>    1.9175    1.0000 </r>
       <r>    2.1971    1.0000 </r>
       <r>    2.2035    1.0000 </r>
       <r>    4.0190    1.0000 </r>
       <r>    4.0224    1.0000 </r>
       <r>    4.1362    1.0000 </r>
       <r>    4.1382    1.0000 </r>
       <r>    4.7810    0.0000 </r>
       <r>    4.7869    0.0000 </r>
       <r>    4.9010    0.0000 </r>
       <r>    4.9083    0.0000 </r>
       <r>    5.1050    0.0000 </r>
       <r>    5.1061    0.0000 </r>
       <r>    5.1926    0.0000 </r>
       <r>    5.1953    0.0000 </r>
       <r>    7.2042    0.0000 </r>
       <r>    7.2054    0.0000 </r>
       <r>    7.2402    0.0000 </r>
       <r>    7.2419    0.0000 </r>
      </set>
     </set>
    </set>
   </array>
  </eigenvalues>
  <separator name="orbital magnetization" >
   <v name="MAGDIPOLOUT">      0.00000000      0.00000000      0.00000000</v>
  </separator>
  <dos>
   <i name="efermi">      4.64974197 </i>
   <total>
    <array>
     <dimension dim="1">gridpoints</dimension>
     <dimension dim="2">spin</dimension>
     <field>energy</field>
     <field>total</field>
     <field>integrated</field>
     <set>
      <set comment="spin 1">
       <r>   -49.0214     0.0000     0.0000 </r>
       <r>   -48.8211     0.0000     0.0000 </r>
       <r>   -48.6208     0.0000     0.0000 </r>
       <r>   -48.4205     0.0000     0.0000 </r>
       <r>   -48.2202     0.0000     0.0000 </r>
       <r>   -48.0199     0.0000     0.0000 </r>
       <r>   -47.8195     0.0000     0.0000 </r>
       <r>   -47.6192     0.0000     0.0000 </r>
       <r>   -47.4189     0.0000     0.0000 </r>
       <r>   -47.2186     0.0000     0.0000 </r>
       <r>   -47.0183     0.0000     0.0000 </r>
       <r>   -46.8180     0.0000     0.0000 </r>
       <r>   -46.6177     0.0000     0.0000 </r>
       <r>   -46.4174     0.0000     0.0000 </r>
       <r>   -46.2171    14.6004     2.9245 </r>
       <r>   -46.0168    48.1220    23.4572 </r>
       <r>   -45.8165     0.0000    24.0000 </r>
       <r>   -45.6162     0.0000    24.0000 </r>
       <r>   -45.4159     0.0000    24.0000 </r>
       <r>   -45.2156     0.0000    24.0000 </r>
       <r>   -45.0153     0.0000    24.0000 </r>
       <r>   -44.8150     0.0000    24.0000 </r>
       <r>   -44.6147     0.0000    24.0000 </r>
       <r>   -44.4144     0.0000    24.0000 </r>
       <r>   -44.2141     0.0000    24.0000 </r>
       <r>   -44.0138     0.0000    24.0000 </r>
       <r>   -43.8135     0.0000    24.0000 </r>
       <r>   -43.6132     0.0000    24.0000 </r>
       <r>   -43.4129     0.0000    24.0000 </r>
       <r>   -43.2126     0.0000    24.0000 </r>
       <r>   -43.0123     0.0000    24.0000 </r>
       <r>   -42.8120     0.0000    24.0000 </r>
       <r>   -42.6117     0.0000    24.0000 </r>
       <r>   -42.4114     0.0000    24.0000 </r>
       <r>   -42.2111     0.0000    24.0000 </r>
       <r>   -42.0108     0.0000    24.0000 </r>
       <r>   -41.8105     0.0000    24.0000 </r>
       <r>   -41.6102     0.0000    24.0000 </r>
       <r>   -41.4099     0.0000    24.0000 </r>
       <r>   -41.2096     0.0000    24.0000 </r>
       <r>   -41.0093     0.0000    24.0000 </r>
       <r>   -40.8090     0.0000    24.0000 </r>
       <r>   -40.6087     0.0000    24.0000 </r>
       <r>   -40.4084     0.0000    24.0000 </r>
       <r>   -40.2080     0.0000    24.0000 </r>
       <r>   -40.0077     0.0000    24.0000 </r>
       <r>   -39.8074     0.0000    24.0000 </r>
       <r>   -39.6071     0.0000    24.0000 </r>
       <r>   -39.4068     0.0000    24.0000 </r>
       <r>   -39.2065     0.0000    24.0000 </r>
       <r>   -39.0062     0.0000    24.0000 </r>
       <r>   -38.8059     0.0000    24.0000 </r>
       <r>   -38.6056     0.0000    24.0000 </r>
       <r>   -38.4053     0.0000    24.0000 </r>
       <r>   -38.2050     0.0000    24.0000 </r>
       <r>   -38.0047     0.0000    24.0000 </r>
       <r>   -37.8044     0.0000    24.0000 </r>
       <r>   -37.6041     0.0000    24.0000 </r>
       <r>   -37.4038     0.0000    24.0000 </r>
       <r>   -37.2035     0.0000    24.0000 </r>
       <r>   -37.0032     0.0000    24.0000 </r>
       <r>   -36.8029     0.0000    24.0000 </r>
       <r>   -36.6026     0.0000    24.0000 </r>
       <r>   -36.4023     0.0000    24.0000 </r>
       <r>   -36.2020     0.0000    24.0000 </r>
       <r>   -36.0017     0.0000    24.0000 </r>
       <r>   -35.8014     0.0000    24.0000 </r>
       <r>   -35.6011     0.0000    24.0000 </r>
       <r>   -35.4008     0.0000    24.0000 </r>
       <r>   -35.2005     0.0000    24.0000 </r>
       <r>   -35.0002     0.0000    24.0000 </r>
       <r>   -34.7999     0.0000    24.0000 </r>
       <r>   -34.5996     0.0000    24.0000 </r>
       <r>   -34.3993     0.0000    24.0000 </r>
       <r>   -34.1990     0.0000    24.0000 </r>
       <r>   -33.9987     0.0000    24.0000 </r>
       <r>   -33.7984     0.0000    24.0000 </r>
       <r>   -33.5981     0.0000    24.0000 </r>
       <r>   -33.3978     0.0000    24.0000 </r>
       <r>   -33.1975     0.0000    24.0000 </r>
       <r>   -32.9972     0.0000    24.0000 </r>
       <r>   -32.7969     0.0000    24.0000 </r>
       <r>   -32.5965     0.0000    24.0000 </r>
       <r>   -32.3962     0.0000    24.0000 </r>
       <r>   -32.1959     0.0000    24.0000 </r>
       <r>   -31.9956     0.0000    24.0000 </r>
       <r>   -31.7953     0.0000    24.0000 </r>
       <r>   -31.5950     0.0000    24.0000 </r>
       <r>   -31.3947     0.0000    24.0000 </r>
       <r>   -31.1944     0.0000    24.0000 </r>
       <r>   -30.9941     0.0000    24.0000 </r>
       <r>   -30.7938     0.0000    24.0000 </r>
       <r>   -30.5935     0.0000    24.0000 </r>
       <r>   -30.3932     0.0000    24.0000 </r>
       <r>   -30.1929     0.0000    24.0000 </r>
       <r>   -29.9926     0.0000    24.0000 </r>
       <r>   -29.7923     0.0000    24.0000 </r>
       <r>   -29.5920     0.0000    24.0000 </r>
       <r>   -29.3917     0.0000    24.0000 </r>
       <r>   -29.1914     0.0000    24.0000 </r>
       <r>   -28.9911     0.0000    24.0000 </r>
       <r>   -28.7908     0.0000    24.0000 </r>
       <r>   -28.5905     0.0000    24.0000 </r>
       <r>   -28.3902     0.0000    24.0000 </r>
       <r>   -28.1899     0.0000    24.0000 </r>
       <r>   -27.9896     0.0000    24.0000 </r>
       <r>   -27.7893     0.0000    24.0000 </r>
       <r>   -27.5890     0.0000    24.0000 </r>
       <r>   -27.3887     0.0000    24.0000 </r>
       <r>   -27.1884     0.0000    24.0000 </r>
       <r>   -26.9881     0.0000    24.0000 </r>
       <r>   -26.7878     0.0000    24.0000 </r>
       <r>   -26.5875     0.0000    24.0000 </r>
       <r>   -26.3872     0.0000    24.0000 </r>
       <r>   -26.1869     0.0000    24.0000 </r>
       <r>   -25.9866     0.0000    24.0000 </r>
       <r>   -25.7863     0.0000    24.0000 </r>
       <r>   -25.5860     0.0000    24.0000 </r>
       <r>   -25.3857     0.0000    24.0000 </r>
       <r>   -25.1854     0.0000    24.0000 </r>
       <r>   -24.9850     0.0000    24.0000 </r>
       <r>   -24.7847     0.0000    24.0000 </r>
       <r>   -24.5844     0.0000    24.0000 </r>
       <r>   -24.3841     0.0000    24.0000 </r>
       <r>   -24.1838     0.0000    24.0000 </r>
       <r>   -23.9835     0.0000    24.0000 </r>
       <r>   -23.7832     0.0000    24.0000 </r>
       <r>   -23.5829     0.0000    24.0000 </r>
       <r>   -23.3826     0.0000    24.0000 </r>
       <r>   -23.1823     0.0000    24.0000 </r>
       <r>   -22.9820     0.0000    24.0000 </r>
       <r>   -22.7817     0.0000    24.0000 </r>
       <r>   -22.5814     0.0000    24.0000 </r>
       <r>   -22.3811     0.0000    24.0000 </r>
       <r>   -22.1808     0.0000    24.0000 </r>
       <r>   -21.9805     0.0000    24.0000 </r>
       <r>   -21.7802     0.0000    24.0000 </r>
       <r>   -21.5799     0.0000    24.0000 </r>
       <r>   -21.3796     0.0000    24.0000 </r>
       <r>   -21.1793     0.0000    24.0000 </r>
       <r>   -20.9790     0.0000    24.0000 </r>
       <r>   -20.7787     0.0000    24.0000 </r>
       <r>   -20.5784     0.0000    24.0000 </r>
       <r>   -20.3781     0.0000    24.0000 </r>
       <r>   -20.1778     0.0000    24.0000 </r>
       <r>   -19.9775     0.0000    24.0000 </r>
       <r>   -19.7772     0.0000    24.0000 </r>
       <r>   -19.5769     0.0000    24.0000 </r>
       <r>   -19.3766     0.0000    24.0000 </r>
       <r>   -19.1763     0.0000    24.0000 </r>
       <r>   -18.9760     0.0000    24.0000 </r>
       <r>   -18.7757     0.0000    24.0000 </r>
       <r>   -18.5754     0.0000    24.0000 </r>
       <r>   -18.3751     0.0000    24.0000 </r>
       <r>   -18.1748     0.0000    24.0000 </r>
       <r>   -17.9745     0.0000    24.0000 </r>
       <r>   -17.7742     0.0000    24.0000 </r>
       <r>   -17.5739     0.0000    24.0000 </r>
       <r>   -17.3735     0.0000    24.0000 </r>
       <r>   -17.1732     0.0000    24.0000 </r>
       <r>   -16.9729     0.0182    24.0036 </r>
       <r>   -16.7726     0.3786    24.1592 </r>
       <r>   -16.5723     0.8501    24.5263 </r>
       <r>   -16.3720     1.9012    25.1914 </r>
       <r>   -16.1717     1.8204    25.7434 </r>
       <r>   -15.9714     1.4953    26.2616 </r>
       <r>   -15.7711     1.9709    27.2508 </r>
       <r>   -15.5708     3.1595    28.7162 </r>
       <r>   -15.3705     5.9543    31.1472 </r>
       <r>   -15.1702     2.2232    32.8620 </r>
       <r>   -14.9699     3.9656    34.9989 </r>
       <r>   -14.7696     3.5925    35.9923 </r>
       <r>   -14.5693     3.6147    36.7240 </r>
       <r>   -14.3690     3.1392    40.0000 </r>
       <r>   -14.1687     0.0000    40.0000 </r>
       <r>   -13.9684     0.0000    40.0000 </r>
       <r>   -13.7681     0.0000    40.0000 </r>
       <r>   -13.5678     0.0000    40.0000 </r>
       <r>   -13.3675     0.0000    40.0000 </r>
       <r>   -13.1672     0.0000    40.0000 </r>
       <r>   -12.9669     0.0000    40.0000 </r>
       <r>   -12.7666     0.0000    40.0000 </r>
       <r>   -12.5663     0.0000    40.0000 </r>
       <r>   -12.3660     0.0000    40.0000 </r>
       <r>   -12.1657     0.0000    40.0000 </r>
       <r>   -11.9654     0.0000    40.0000 </r>
       <r>   -11.7651     0.0000    40.0000 </r>
       <r>   -11.5648     0.0000    40.0000 </r>
       <r>   -11.3645     0.0000    40.0000 </r>
       <r>   -11.1642     0.0000    40.0000 </r>
       <r>   -10.9639     0.0000    40.0000 </r>
       <r>   -10.7636     0.0000    40.0000 </r>
       <r>   -10.5633     0.0000    40.0000 </r>
       <r>   -10.3630     0.0000    40.0000 </r>
       <r>   -10.1627     0.0000    40.0000 </r>
       <r>    -9.9624     0.0000    40.0000 </r>
       <r>    -9.7620     0.0000    40.0000 </r>
       <r>    -9.5617     0.0000    40.0000 </r>
       <r>    -9.3614     0.0000    40.0000 </r>
       <r>    -9.1611     0.0000    40.0000 </r>
       <r>    -8.9608     0.0000    40.0000 </r>
       <r>    -8.7605     0.0000    40.0000 </r>
       <r>    -8.5602     0.0000    40.0000 </r>
       <r>    -8.3599     0.0000    40.0000 </r>
       <r>    -8.1596     0.0000    40.0000 </r>
       <r>    -7.9593     0.0000    40.0000 </r>
       <r>    -7.7590     0.0000    40.0000 </r>
       <r>    -7.5587     0.0000    40.0000 </r>
       <r>    -7.3584     0.0000    40.0000 </r>
       <r>    -7.1581     0.0000    40.0000 </r>
       <r>    -6.9578     0.0000    40.0000 </r>
       <r>    -6.7575     0.0000    40.0000 </r>
       <r>    -6.5572     0.0000    40.0000 </r>
       <r>    -6.3569     0.0000    40.0000 </r>
       <r>    -6.1566     0.0000    40.0000 </r>
       <r>    -5.9563     0.0000    40.0000 </r>
       <r>    -5.7560     0.0000    40.0000 </r>
       <r>    -5.5557     0.0000    40.0000 </r>
       <r>    -5.3554     0.0000    40.0000 </r>
       <r>    -5.1551     0.0000    40.0000 </r>
       <r>    -4.9548     0.0000    40.0000 </r>
       <r>    -4.7545     0.0000    40.0000 </r>
       <r>    -4.5542     0.0000    40.0000 </r>
       <r>    -4.3539     0.0000    40.0000 </r>
       <r>    -4.1536     0.0000    40.0000 </r>
       <r>    -3.9533     0.0000    40.0000 </r>
       <r>    -3.7530     0.0000    40.0000 </r>
       <r>    -3.5527     0.0000    40.0000 </r>
       <r>    -3.3524     0.1511    40.0530 </r>
       <r>    -3.1521     0.6034    40.2799 </r>
       <r>    -2.9518     0.6361    40.5668 </r>
       <r>    -2.7515     1.5788    41.6420 </r>
       <r>    -2.5512     4.8144    43.5855 </r>
       <r>    -2.3509     2.8178    45.7841 </r>
       <r>    -2.1505     3.4945    47.9575 </r>
       <r>    -1.9502     6.0240    50.4491 </r>
       <r>    -1.7499     2.9071    53.4156 </r>
       <r>    -1.5496     3.0125    54.6186 </r>
       <r>    -1.3493     3.5533    56.3405 </r>
       <r>    -1.1490     2.6344    57.3686 </r>
       <r>    -0.9487     2.3621    58.3898 </r>
       <r>    -0.7484     4.2293    59.9608 </r>
       <r>    -0.5481     3.9373    62.0083 </r>
       <r>    -0.3478     2.4966    63.3182 </r>
       <r>    -0.1475     1.8700    64.6018 </r>
       <r>     0.0528     2.2713    66.0383 </r>
       <r>     0.2531     2.7299    67.8423 </r>
       <r>     0.4534     5.2751    70.0415 </r>
       <r>     0.6537     4.7538    72.1795 </r>
       <r>     0.8540     3.6718    74.5461 </r>
       <r>     1.0543     4.7451    76.9050 </r>
       <r>     1.2546     2.0899    78.4489 </r>
       <r>     1.4549     3.1178    79.6927 </r>
       <r>     1.6552     3.0038    81.1623 </r>
       <r>     1.8555     2.5265    82.4076 </r>
       <r>     2.0558     2.5090    83.7223 </r>
       <r>     2.2561     2.0190    84.7226 </r>
       <r>     2.4564     3.2703    86.4354 </r>
       <r>     2.6567     1.3718    87.1990 </r>
       <r>     2.8570     0.4919    87.8182 </r>
       <r>     3.0573     0.1513    87.9848 </r>
       <r>     3.2576     0.0000    88.0000 </r>
       <r>     3.4579     0.0000    88.0000 </r>
       <r>     3.6582     1.2095    88.2650 </r>
       <r>     3.8585     5.4704    90.4063 </r>
       <r>     4.0588     6.0740    93.6636 </r>
       <r>     4.2591     5.4948    96.2446 </r>
       <r>     4.4594     2.2189    98.2248 </r>
       <r>     4.6597     5.0087   100.0942 </r>
       <r>     4.8600     8.0213   102.8567 </r>
       <r>     5.0603     2.5647   105.0213 </r>
       <r>     5.2606     2.9226   106.5551 </r>
       <r>     5.4610     3.0354   108.4565 </r>
       <r>     5.6613     2.9810   110.2032 </r>
       <r>     5.8616     1.5880   111.5226 </r>
       <r>     6.0619     0.1135   112.0000 </r>
       <r>     6.2622     0.0000   112.0000 </r>
       <r>     6.4625     0.0000   112.0000 </r>
       <r>     6.6628     0.2034   112.0483 </r>
       <r>     6.8631     0.4812   112.2403 </r>
       <r>     7.0634     4.4624   114.1438 </r>
       <r>     7.2637     2.4969   115.5683 </r>
       <r>     7.4640     3.1447   117.1526 </r>
       <r>     7.6643     1.4172   118.0566 </r>
       <r>     7.8646     2.0895   118.9185 </r>
       <r>     8.0649     1.2778   119.7635 </r>
       <r>     8.2652     0.3028   119.9394 </r>
       <r>     8.4655     0.0000   120.0000 </r>
       <r>     8.6658     0.0000   120.0000 </r>
       <r>     8.8661     0.0000   120.0000 </r>
       <r>     9.0664     0.0000   120.0000 </r>
       <r>     9.2667     0.0000   120.0000 </r>
       <r>     9.4670     0.0000   120.0000 </r>
       <r>     9.6673     0.0000   120.0000 </r>
       <r>     9.8676     0.0000   120.0000 </r>
       <r>    10.0679     0.0000   120.0000 </r>
       <r>    10.2682     0.0000   120.0000 </r>
       <r>    10.4685     0.0000   120.0000 </r>
       <r>    10.6688     0.0000   120.0000 </r>
       <r>    10.8691     0.0000   120.0000 </r>
       <r>    11.0694     0.0000   120.0000 </r>
      </set>
     </set>
    </array>
   </total>
  </dos>
 </calculation>
 <structure name="finalpos" >
  <crystal>
   <varray name="basis" >
    <v>       2.67343134      -0.00000214       0.00000193 </v>
    <v>      -0.00000514       4.78845608       0.00047365 </v>
    <v>      -0.00000467       0.00109331       9.03565783 </v>
   </varray>
   <i name="volume">    115.67095304 </i>
   <varray name="rec_basis" >
    <v>       0.37405112       0.00000040       0.00000019 </v>
    <v>       0.00000017       0.20883558      -0.00002527 </v>
    <v>      -0.00000008      -0.00001095       0.11067263 </v>
   </varray>
  </crystal>
  <varray name="positions" >
   <v>       0.25000808       0.05106347       0.85771224 </v>
   <v>       0.74999143       0.94892762       0.14229722 </v>
   <v>       0.75000506       0.55116678       0.64231230 </v>
   <v>       0.24998634       0.44884310       0.35768407 </v>
   <v>       0.24999600       0.70162017       0.52248718 </v>
   <v>       0.75000384       0.20160076       0.97747113 </v>
   <v>       0.25000099       0.79837007       0.02253209 </v>
   <v>       0.74999289       0.29837572       0.47749408 </v>
   <v>       0.24998599       0.15957218       0.23334774 </v>
   <v>       0.25002524       0.34049184       0.73337061 </v>
   <v>       0.74997905       0.65951422       0.26664578 </v>
   <v>       0.75002509       0.84045507       0.76664656 </v>
  </varray>
 </structure>
</modeling>
