unknown system                          
           1
     2.673431   -0.000002    0.000002
    -0.000005    4.788456    0.000474
    -0.000005    0.001093    9.035658
   Mn   O 
   4   8
Direct configuration=     1
   0.25000808  0.05106347  0.85771224
   0.74999143  0.94892762  0.14229722
   0.75000506  0.55116678  0.64231230
   0.24998634  0.44884310  0.35768407
   0.24999600  0.70162017  0.52248718
   0.75000384  0.20160076  0.97747113
   0.25000099  0.79837007  0.02253209
   0.74999289  0.29837572  0.47749408
   0.24998599  0.15957218  0.23334774
   0.25002524  0.34049184  0.73337061
   0.74997905  0.65951422  0.26664578
   0.75002509  0.84045507  0.76664656
