unknown system                          
   1.00000000000000     
     0.000004    2.028819    2.028819
     2.028819    0.000004    2.028819
     2.028819    2.028819    0.000004
   Li   F 
     1     1
Direct
  0.000000  0.000000  0.000000
  0.500000  0.500000  0.500000
 
   48   48   48
 0.15783345960E+04 0.79938136504E+03 0.41349771803E+03 0.21806988398E+03 0.11704690934E+03
 0.63827429250E+02 0.35354439885E+02 0.19929306469E+02 0.11477683640E+02 0.67944594204E+01
 0.41741646244E+01 0.27029063875E+01 0.18635603335E+01 0.14395811505E+01 0.12202675402E+01
 0.11171001650E+01 0.10804044214E+01 0.10814312227E+01 0.11023507882E+01 0.11313608782E+01
 0.11606240664E+01 0.11854152849E+01 0.12034807635E+01 0.12142168217E+01 0.12177508953E+01
 0.12142166762E+01 0.12034804769E+01 0.11854148670E+01 0.11606235336E+01 0.11313602532E+01
 0.11023500998E+01 0.10814305021E+01 0.10804036986E+01 0.11170994634E+01 0.12202668706E+01
 0.14395805014E+01 0.18635596544E+01 0.27029055479E+01 0.41741634159E+01 0.67944573990E+01
 0.11477679924E+02 0.19929299298E+02 0.35354425784E+02 0.63827401349E+02 0.11704685397E+03
 0.21806977349E+03 0.41349749541E+03 0.79938091152E+03 0.79938143653E+03 0.49242627825E+03
 0.27296724928E+03 0.14931360768E+03 0.82058835701E+02 0.45548607693E+02 0.25623695547E+02
 0.14670487109E+02 0.85961170944E+01 0.51964350545E+01 0.32822291046E+01 0.22079320605E+01
 0.16072007196E+01 0.13069440546E+01 0.11576838853E+01 0.10946730102E+01 0.10811193441E+01
 0.10949579574E+01 0.11219339802E+01 0.11524659662E+01 0.11803952234E+01 0.12023420549E+01
 0.12169969369E+01 0.12242278988E+01 0.12242277540E+01 0.12169965162E+01 0.12023413983E+01
 0.11803943949E+01 0.11524650483E+01 0.11219330660E+01 0.10949571407E+01 0.10811187111E+01
 0.10946726387E+01 0.11576838549E+01 0.13069444751E+01 0.16072017876E+01 0.22079342581E+01
 0.32822331339E+01 0.51964423490E+01 0.85961303109E+01 0.14670511062E+02 0.25623738814E+02
 0.45548685556E+02 0.82058975849E+02 0.14931386067E+03 0.27296770341E+03 0.49242704013E+03
 0.79938216111E+03 0.41349775811E+03 0.27296726001E+03 0.16303613249E+03 0.93988357433E+02
 0.53641357414E+02 0.30669284667E+02 0.17703985001E+02 0.10391757205E+02 0.62526363980E+01
 0.38999688268E+01 0.25647573783E+01 0.17997942398E+01 0.14123582315E+01 0.12130398984E+01
 0.11214845003E+01 0.10921146864E+01 0.10981652410E+01 0.11227602443E+01 0.11545698422E+01
 0.11860023847E+01 0.12124569697E+01 0.12317249030E+01 0.12431978641E+01 0.12469812000E+01
 0.12431974414E+01 0.12317241047E+01 0.12124558857E+01 0.11860011401E+01 0.11545685844E+01
 0.11227591267E+01 0.10981644083E+01 0.10921142686E+01 0.11214846251E+01 0.12130407328E+01
 0.14123600687E+01 0.17997976539E+01 0.25647637460E+01 0.38999801232E+01 0.62526565415E+01
 0.10391793280E+02 0.17704049349E+02 0.30669398481E+02 0.53641556270E+02 0.93988698901E+02
 0.16303669665E+03 0.27296809465E+03 0.41349860519E+03 0.49242722378E+03 0.21806990712E+03
 0.14931361713E+03 0.93988360117E+02 0.56772142405E+02 0.33693135579E+02 0.19930334573E+02
 0.11874922582E+02 0.71955879174E+01 0.44839356101E+01 0.29187402552E+01 0.20267544945E+01
 0.15275007442E+01 0.12778933974E+01 0.11572934487E+01 0.11117378600E+01 0.11097541010E+01
 0.11318478771E+01 0.11650232395E+01 0.12003455172E+01 0.12319957612E+01 0.12567460880E+01
 0.12733115240E+01 0.12815188162E+01 0.12815185369E+01 0.12733107172E+01 0.12567448446E+01
 0.12319942233E+01 0.12003438639E+01 0.11650216681E+01 0.11318465824E+01 0.11097532621E+01
 0.11117376456E+01 0.11572940559E+01 0.12778951401E+01 0.15275042186E+01 0.20267611328E+01
 0.29187520887E+01 0.44839565287E+01 0.71956247566E+01 0.11874986887E+02 0.19930445199E+02
 0.33693321850E+02 0.56772446168E+02 0.93988829147E+02 0.14931426474E+03 0.21807059444E+03
 0.27296815957E+03 0.27296783250E+03 0.11704692304E+03 0.82058842490E+02 0.53641360212E+02
 0.33693136422E+02 0.20754234122E+02 0.12722645101E+02 0.78556779045E+01 0.49456621602E+01
 0.32233280562E+01 0.22191777725E+01 0.16399019679E+01 0.13451431016E+01 0.11975468749E+01
 0.11366704154E+01 0.11270222099E+01 0.11467831233E+01 0.11815004431E+01 0.12210775106E+01
 0.12585798458E+01 0.12897339662E+01 0.13124314301E+01 0.13260213748E+01 0.13305237073E+01
 0.13260207105E+01 0.13124301708E+01 0.12897322440E+01 0.12585778426E+01 0.12210754402E+01
 0.11814985289E+01 0.11467815799E+01 0.11270212394E+01 0.11366702341E+01 0.11975477881E+01
 0.13451456508E+01 0.16399071814E+01 0.22191879742E+01 0.32233463555E+01 0.49456942166E+01
 0.78557329500E+01 0.12722737379E+02 0.20754384362E+02 0.33693371185E+02 0.53641705350E+02
 0.82059300356E+02 0.11704742270E+03 0.14931429005E+03 0.16303675419E+03 0.14931393571E+03
 0.63827437535E+02 0.45548612289E+02 0.30669286931E+02 0.19930335535E+02 0.12722645402E+02
 0.80938784255E+01 0.52020698026E+01 0.34307592347E+01 0.23678650566E+01 0.17350413450E+01
 0.14064261729E+01 0.12369800462E+01 0.11631713982E+01 0.11469730210E+01 0.11649072824E+01
 0.12014377517E+01 0.12455792501E+01 0.12894752206E+01 0.13278795734E+01 0.13577946122E+01
 0.13779242418E+01 0.13879677775E+01 0.13879673954E+01 0.13779231304E+01 0.13577928723E+01
 0.13278773622E+01 0.12894727361E+01 0.12455767127E+01 0.12014353852E+01 0.11649053042E+01
 0.11469716557E+01 0.11631709323E+01 0.12369809451E+01 0.14064292863E+01 0.17350482261E+01
 0.23678789622E+01 0.34307842497E+01 0.52021128046E+01 0.80939495527E+01 0.12722758340E+02
 0.19930506600E+02 0.30669530093E+02 0.45548926933E+02 0.63827787086E+02 0.82059310980E+02
 0.93988854818E+02 0.93988737164E+02 0.82059017528E+02 0.35354444970E+02 0.25623698596E+02
 0.17703986674E+02 0.11874923413E+02 0.78556782576E+01 0.52020699069E+01 0.35044549555E+01
 0.24491491422E+01 0.17989731281E+01 0.14532744265E+01 0.12701711284E+01 0.11874015255E+01
 0.11665515477E+01 0.11835165479E+01 0.12222222577E+01 0.12711551359E+01 0.13218042053E+01
 0.13681140945E+01 0.14062259057E+01 0.14340957720E+01 0.14509219426E+01 0.14565310936E+01
 0.14509211263E+01 0.14340941992E+01 0.14062236898E+01 0.13681113909E+01 0.13218011979E+01
 0.12711520229E+01 0.12222192419E+01 0.11835138419E+01 0.11665494094E+01 0.11874003425E+01
 0.12701715741E+01 0.14532777089E+01 0.17989813320E+01 0.24491663154E+01 0.35044857172E+01
 0.52021213930E+01 0.78557595523E+01 0.11875044548E+02 0.17704155461E+02 0.25623914108E+02
 0.35354687580E+02 0.45548931644E+02 0.53641717084E+02 0.56772465087E+02 0.53641579404E+02
 0.45548708422E+02 0.19929309630E+02 0.14670489112E+02 0.10391758382E+02 0.71955885462E+01
 0.49456624489E+01 0.34307593308E+01 0.24491491512E+01 0.18215285035E+01 0.14786894122E+01
 0.12923216136E+01 0.12058506420E+01 0.11829219097E+01 0.12000759171E+01 0.12413817076E+01
 0.12952238884E+01 0.13527546569E+01 0.14073411648E+01 0.14543807241E+01 0.14910645920E+01
 0.15159580145E+01 0.15284855274E+01 0.15284851034E+01 0.15159567648E+01 0.14910625811E+01
 0.14543780502E+01 0.14073379511E+01 0.13527510435E+01 0.12952200284E+01 0.12413777707E+01
 0.12000721133E+01 0.11829185471E+01 0.12058482368E+01 0.12923210714E+01 0.14786922888E+01
 0.18215373119E+01 0.24491683954E+01 0.34307936059E+01 0.49457179802E+01 0.71956719073E+01
 0.10391874308E+02 0.14670636992E+02 0.19929478626E+02 0.25623916299E+02 0.30669535627E+02
 0.33693380535E+02 0.33693334214E+02 0.30669411965E+02 0.25623751375E+02 0.11477685617E+02
 0.85961183894E+01 0.62526371746E+01 0.44839360182E+01 0.32233282192E+01 0.23678650740E+01
 0.17989730785E+01 0.14786893624E+01 0.13001029891E+01 0.12158139321E+01 0.11937655426E+01
 0.12124351917E+01 0.12567648985E+01 0.13154917749E+01 0.13797684585E+01 0.14426546771E+01
 0.14989905261E+01 0.15452729497E+01 0.15793785305E+01 0.16001760044E+01 0.16071552115E+01
 0.16001751693E+01 0.15793768843E+01 0.15452705352E+01 0.14989873983E+01 0.14426509000E+01
 0.13797641069E+01 0.13154869435E+01 0.12567597224E+01 0.12124298869E+01 0.11937604824E+01
 0.12158097717E+01 0.13001008506E+01 0.14786910689E+01 0.17989813711E+01 0.23678844739E+01
 0.32233627044E+01 0.44839902091E+01 0.62527144119E+01 0.85962187000E+01 0.11477802910E+02
 0.14670638060E+02 0.17704158164E+02 0.19930511295E+02 0.20754390904E+02 0.19930452868E+02
 0.17704057128E+02 0.14670518048E+02 0.67944606348E+01 0.51964358403E+01 0.38999692667E+01
 0.29187404343E+01 0.22191777712E+01 0.17350412339E+01 0.14532742731E+01 0.12923214711E+01
 0.12158138440E+01 0.11975575297E+01 0.12190280056E+01 0.12667023864E+01 0.13301000495E+01
 0.14006978669E+01 0.14715237489E+01 0.15370859373E+01 0.15933296149E+01 0.16374727624E+01
 0.16677426085E+01 0.16831117959E+01 0.16831113935E+01 0.16677414031E+01 0.16374707564E+01
 0.15933268062E+01 0.15370823166E+01 0.14715193044E+01 0.14006925987E+01 0.13300939928E+01
 0.12666956468E+01 0.12190208147E+01 0.11975503301E+01 0.12158074149E+01 0.12923170929E+01
 0.14532739010E+01 0.17350475925E+01 0.22191949911E+01 0.29187715158E+01 0.39000169618E+01
 0.51965007738E+01 0.67945396660E+01 0.85962192448E+01 0.10391875684E+02 0.11875046971E+02
 0.12722761830E+02 0.12722741691E+02 0.11874991562E+02 0.10391797803E+02 0.85961342859E+01
 0.41741653014E+01 0.32822294873E+01 0.25647575127E+01 0.20267544363E+01 0.16399017737E+01
 0.14064259051E+01 0.12701708392E+01 0.12058503769E+01 0.11937653393E+01 0.12190278934E+01
 0.12701357048E+01 0.13377414278E+01 0.14139254437E+01 0.14919358601E+01 0.15661804464E+01
 0.16322388749E+01 0.16867759169E+01 0.17273760864E+01 0.17523871252E+01 0.17608323169E+01
 0.17523863560E+01 0.17273745324E+01 0.16867735423E+01 0.16322356195E+01 0.15661762285E+01
 0.14919305903E+01 0.14139190511E+01 0.13377338956E+01 0.12701271182E+01 0.12190185023E+01
 0.11937556446E+01 0.12058412419E+01 0.12701636145E+01 0.14064225241E+01 0.16399047261E+01
 0.20267671681E+01 0.25647819948E+01 0.32822668595E+01 0.41742143737E+01 0.51965010606E+01
 0.62527151356E+01 0.71956731943E+01 0.78557614484E+01 0.80939519841E+01 0.78557357197E+01
 0.71956276018E+01 0.62526592073E+01 0.51964446645E+01 0.27029066399E+01 0.22079320921E+01
 0.17997940776E+01 0.15275004409E+01 0.13451427045E+01 0.12369796032E+01 0.11874010815E+01
 0.11829215039E+01 0.12124348565E+01 0.12667021467E+01 0.13377413016E+01 0.14184478429E+01
 0.15024976271E+01 0.15844076877E+01 0.16595897201E+01 0.17243102625E+01 0.17755891143E+01
 0.18111261287E+01 0.18293135914E+01 0.18293132151E+01 0.18111249866E+01 0.17755871638E+01
 0.17243074254E+01 0.16595858801E+01 0.15844026983E+01 0.15024913340E+01 0.14184401184E+01
 0.13377320901E+01 0.12666915187E+01 0.12124230743E+01 0.11829091005E+01 0.11873889481E+01
 0.12369690666E+01 0.13451355467E+01 0.15274987806E+01 0.17998000242E+01 0.22079478671E+01
 0.27029317657E+01 0.32822670073E+01 0.39000173434E+01 0.44839908983E+01 0.49457190160E+01
 0.52021227599E+01 0.52021144227E+01 0.49456959570E+01 0.44839582483E+01 0.38999816976E+01
 0.32822344825E+01 0.18635602081E+01 0.16072004237E+01 0.14123577936E+01 0.12778928553E+01
 0.11975462705E+01 0.11631707736E+01 0.11665509417E+01 0.12000753632E+01 0.12567644237E+01
 0.13300996743E+01 0.14139251829E+01 0.15024974920E+01 0.15906134340E+01 0.16736976202E+01
 0.17477905909E+01 0.18094810491E+01 0.18558818860E+01 0.18847175292E+01 0.18945023268E+01
 0.18847167378E+01 0.18558802736E+01 0.18094785501E+01 0.17477870957E+01 0.16736929742E+01
 0.15906074485E+01 0.15024899709E+01 0.14139159622E+01 0.13300886716E+01 0.12567516957E+01
 0.12000611689E+01 0.11665358104E+01 0.11631555672E+01 0.11975322168E+01 0.12778815100E+01
 0.14123508730E+01 0.16071994634E+01 0.18635660650E+01 0.22079479320E+01 0.25647821788E+01
 0.29187718653E+01 0.32233632481E+01 0.34307943460E+01 0.35044866227E+01 0.34307852619E+01
 0.32233473963E+01 0.29187530813E+01 0.25647646284E+01 0.22079349930E+01 0.14395806957E+01
 0.13069434626E+01 0.12130391989E+01 0.11572926775E+01 0.11366696106E+01 0.11469722197E+01
 0.11835157832E+01 0.12413810071E+01 0.13154911600E+01 0.14006973533E+01 0.14919354598E+01
 0.15844074107E+01 0.16736974766E+01 0.17557805503E+01 0.18269706616E+01 0.18839163663E+01
 0.19237266065E+01 0.19442227586E+01 0.19442223114E+01 0.19237252542E+01 0.18839140736E+01
 0.18269673575E+01 0.17557761190E+01 0.16736917551E+01 0.15844001996E+01 0.14919265495E+01
 0.14006865636E+01 0.13154783901E+01 0.12413662931E+01 0.11834993591E+01 0.11469545755E+01
 0.11366515338E+01 0.11572752558E+01 0.12130237505E+01 0.13069313600E+01 0.14395730744E+01
 0.16071994731E+01 0.17998000793E+01 0.20267673064E+01 0.22191952302E+01 0.23678848207E+01
 0.24491688399E+01 0.24491668310E+01 0.23678795099E+01 0.22191885103E+01 0.20267616165E+01
 0.17997980357E+01 0.16072020753E+01 0.12202667837E+01 0.11576830221E+01 0.11214835612E+01
 0.11117368792E+01 0.11270212218E+01 0.11649063189E+01 0.12222213457E+01 0.12952230492E+01
 0.13797677077E+01 0.14715230977E+01 0.15661799041E+01 0.16595892963E+01 0.17477902966E+01
 0.18269705089E+01 0.18934644490E+01 0.19438854580E+01 0.19754107952E+01 0.19861427329E+01
 0.19754097148E+01 0.19438832913E+01 0.18934611758E+01 0.18269660809E+01 0.17477846248E+01
 0.16595822448E+01 0.15661712962E+01 0.14715127367E+01 0.13797554122E+01 0.12952087017E+01
 0.12222049500E+01 0.11648880615E+01 0.11270015255E+01 0.11117164334E+01 0.11214633094E+01
 0.11576640834E+01 0.12202502951E+01 0.13069313338E+01 0.14123508459E+01 0.15274987744E+01
 0.16399047568E+01 0.17350476676E+01 0.17989814891E+01 0.18215374627E+01 0.17989814981E+01
 0.17350483860E+01 0.16399073135E+01 0.15275043047E+01 0.14123600974E+01 0.13069444434E+01
 0.11170991393E+01 0.10946719078E+01 0.10921135383E+01 0.11097529390E+01 0.11467819772E+01
 0.12014366473E+01 0.12711540935E+01 0.13527536910E+01 0.14426537977E+01 0.15370851520E+01
 0.16322381911E+01 0.17243096900E+01 0.18094806005E+01 0.18839160558E+01 0.19438852986E+01
 0.19860428224E+01 0.20078222800E+01 0.20078216137E+01 0.19860408318E+01 0.19438820041E+01
 0.18839114785E+01 0.18094747453E+01 0.17243025283E+01 0.16322296472E+01 0.15370750997E+01
 0.14426420713E+01 0.13527401146E+01 0.12711385281E+01 0.12014190518E+01 0.11467624736E+01
 0.11097318687E+01 0.10920914909E+01 0.10946497063E+01 0.11170777675E+01 0.11576640324E+01
 0.12130236662E+01 0.12778814087E+01 0.13451354406E+01 0.14064224202E+01 0.14532738010E+01
 0.14786909697E+01 0.14786921838E+01 0.14532775891E+01 0.14064291422E+01 0.13451454739E+01
 0.12778949245E+01 0.12130404766E+01 0.11576835610E+01 0.10804031663E+01 0.10811180421E+01
 0.10981639216E+01 0.11318465683E+01 0.11814991691E+01 0.12455780298E+01 0.13218030518E+01
 0.14073400867E+01 0.14989895285E+01 0.15933287026E+01 0.16867750969E+01 0.17755883971E+01
 0.18558812861E+01 0.19237261401E+01 0.19754104771E+01 0.20078221199E+01 0.20188714466E+01
 0.20078205026E+01 0.19754072793E+01 0.19237214294E+01 0.18558751485E+01 0.17755809173E+01
 0.16867663333E+01 0.15933186630E+01 0.14989781524E+01 0.14073272459E+01 0.13217885738E+01
 0.12455617464E+01 0.11814809847E+01 0.11318265340E+01 0.10981422992E+01 0.10810953375E+01
 0.10803801190E+01 0.10946496387E+01 0.11214631860E+01 0.11572750884E+01 0.11975320147E+01
 0.12369688359E+01 0.12701633575E+01 0.12923168097E+01 0.13001005394E+01 0.12923207301E+01
 0.12701712008E+01 0.12369805384E+01 0.11975473481E+01 0.11572935843E+01 0.11214841259E+01
 0.10946721186E+01 0.10814297840E+01 0.10949565005E+01 0.11227587954E+01 0.11650218212E+01
 0.12210761405E+01 0.12894739105E+01 0.13681128513E+01 0.14543795509E+01 0.15452718484E+01
 0.16374717362E+01 0.17273751425E+01 0.18111252789E+01 0.18847167896E+01 0.19442221472E+01
 0.19861422657E+01 0.20078213018E+01 0.20078203491E+01 0.19861394347E+01 0.19442175176E+01
 0.18847104907E+01 0.18111174778E+01 0.17273660202E+01 0.16374614522E+01 0.15452605010E+01
 0.14543671458E+01 0.13680992918E+01 0.12894590189E+01 0.12210597128E+01 0.11650037059E+01
 0.11227389797E+01 0.10949351829E+01 0.10814074136E+01 0.10810952604E+01 0.10920913431E+01
 0.11117162224E+01 0.11366512664E+01 0.11631552479E+01 0.11873885791E+01 0.12058408238E+01
 0.12158069480E+01 0.12158092568E+01 0.12058476761E+01 0.11873997397E+01 0.11631702923E+01
 0.11366695629E+01 0.11117369500E+01 0.10921135565E+01 0.10811179915E+01 0.11023492150E+01
 0.11219324146E+01 0.11545683056E+01 0.12003440260E+01 0.12585784109E+01 0.13278782005E+01
 0.14062245961E+01 0.14910633452E+01 0.15793773460E+01 0.16677414889E+01 0.17523860780E+01
 0.18293126298E+01 0.18945014681E+01 0.19442215745E+01 0.19754091168E+01 0.19860403842E+01
 0.19754069866E+01 0.19442173761E+01 0.18944953302E+01 0.18293047496E+01 0.17523767102E+01
 0.16677309142E+01 0.15793658222E+01 0.14910510516E+01 0.14062115893E+01 0.13278643993E+01
 0.12585636220E+01 0.12003280086E+01 0.11545508627E+01 0.11219134900E+01 0.11023289714E+01
 0.10949351031E+01 0.10981421404E+01 0.11097316342E+01 0.11270012192E+01 0.11469541999E+01
 0.11665353668E+01 0.11829085887E+01 0.11937550648E+01 0.11975496840E+01 0.11937597739E+01
 0.11829177827E+01 0.11665485975E+01 0.11469708061E+01 0.11270203626E+01 0.11097523686E+01
 0.10981635085E+01 0.10949562442E+01 0.11313592187E+01 0.11524643362E+01 0.11860008000E+01
 0.12319942322E+01 0.12897324979E+01 0.13577932051E+01 0.14340944234E+01 0.15159567210E+01
 0.16001747641E+01 0.16831106109E+01 0.17608311951E+01 0.18293121701E+01 0.18847157876E+01
 0.19237244181E+01 0.19438825865E+01 0.19438814427E+01 0.19237210165E+01 0.18847102243E+01
 0.18293046219E+01 0.17608219269E+01 0.16830999616E+01 0.16001631040E+01 0.15159443870E+01
 0.14340816497E+01 0.13577800721E+01 0.12897189200E+01 0.12319799929E+01 0.11859856299E+01
 0.11524480154E+01 0.11313416789E+01 0.11219134140E+01 0.11227388230E+01 0.11318262954E+01
 0.11467621534E+01 0.11648876600E+01 0.11834988753E+01 0.12000606014E+01 0.12124224219E+01
 0.12190177657E+01 0.12190199978E+01 0.12124289971E+01 0.12000711612E+01 0.11835128404E+01
 0.11649042672E+01 0.11467805212E+01 0.11318455149E+01 0.11227580619E+01 0.11219320131E+01
 0.11606223654E+01 0.11803935696E+01 0.12124553739E+01 0.12567445553E+01 0.13124299609E+01
 0.13779228324E+01 0.14509205871E+01 0.15284842199E+01 0.16071539487E+01 0.16831101769E+01
 0.17523851931E+01 0.18111238910E+01 0.18558792630E+01 0.18839131672E+01 0.18934603908E+01
 0.18839108270E+01 0.18558746364E+01 0.18111171045E+01 0.17523764700E+01 0.16830998463E+01
 0.16071424220E+01 0.15284719339E+01 0.14509079247E+01 0.13779100454E+01 0.13124171215E+01
 0.12567315548E+01 0.12124419725E+01 0.11803794877E+01 0.11606073921E+01 0.11524479493E+01
 0.11545507206E+01 0.11650034820E+01 0.11814806754E+01 0.12014186541E+01 0.12222044605E+01
 0.12413657077E+01 0.12567510110E+01 0.12666907332E+01 0.12701262341E+01 0.12666946710E+01
 0.12567586660E+01 0.12413766487E+01 0.12222180711E+01 0.12014341829E+01 0.11814973111E+01
 0.11650204489E+01 0.11545673752E+01 0.11524638573E+01 0.11854135829E+01 0.12023404153E+01
 0.12317233322E+01 0.12733100228E+01 0.13260199396E+01 0.13879664010E+01 0.14565297669E+01
 0.15284838180E+01 0.16001739202E+01 0.16677401903E+01 0.17273733627E+01 0.17755860501E+01
 0.18094775097E+01 0.18269664090E+01 0.18269652412E+01 0.18094740265E+01 0.17755803259E+01
 0.17273655570E+01 0.16677305761E+01 0.16001628854E+01 0.15284718282E+01 0.14565172925E+01
 0.13879538290E+01 0.13260074984E+01 0.12732977462E+01 0.12317110762E+01 0.12023279260E+01
 0.11854005971E+01 0.11803794364E+01 0.11859855134E+01 0.12003278167E+01 0.12210594378E+01
 0.12455613817E+01 0.12711380669E+01 0.12952081367E+01 0.13154777145E+01 0.13300878806E+01
 0.13377311829E+01 0.13377328768E+01 0.13300928728E+01 0.13154857379E+01 0.12952187560E+01
 0.12711507041E+01 0.12455753670E+01 0.12210740851E+01 0.12003425139E+01 0.11859998061E+01
 0.11803930841E+01 0.12034790990E+01 0.12169953488E+01 0.12431963549E+01 0.12815173832E+01
 0.13305223430E+01 0.13879660887E+01 0.14509198647E+01 0.15159555371E+01 0.15793756829E+01
 0.16374695799E+01 0.16867723964E+01 0.17243063222E+01 0.17477860521E+01 0.17557751529E+01
 0.17477837524E+01 0.17243017619E+01 0.16867656799E+01 0.16374609144E+01 0.15793653994E+01
 0.15159440767E+01 0.14509077232E+01 0.13879537316E+01 0.13305101179E+01 0.12815054576E+01
 0.12431847020E+01 0.12169837875E+01 0.12034673788E+01 0.12023278927E+01 0.12124418895E+01
 0.12319798467E+01 0.12585634013E+01 0.12894587135E+01 0.13217881731E+01 0.13527396073E+01
 0.13797547874E+01 0.14006858119E+01 0.14139150784E+01 0.14184391034E+01 0.14139179128E+01
 0.14006913518E+01 0.13797627711E+01 0.13527496415E+01 0.13217997525E+01 0.12894712686E+01
 0.12585763713E+01 0.12319927628E+01 0.12124544470E+01 0.12023399882E+01 0.12142152326E+01
 0.12242263998E+01 0.12469797900E+01 0.12815172091E+01 0.13260194530E+01 0.13779219280E+01
 0.14340930353E+01 0.14910614411E+01 0.15452694094E+01 0.15933256918E+01 0.16322345214E+01
 0.16595848100E+01 0.16736919482E+01 0.16736907906E+01 0.16595813575E+01 0.16322288492E+01
 0.15933179621E+01 0.15452599018E+01 0.14910505564E+01 0.14340812592E+01 0.13779097591E+01
 0.13260073140E+01 0.12815053699E+01 0.12469683300E+01 0.12242152217E+01 0.12142041272E+01
 0.12169837739E+01 0.12317110313E+01 0.12567314635E+01 0.12897187684E+01 0.13278641739E+01
 0.13680989786E+01 0.14073268296E+01 0.14426415361E+01 0.14715120680E+01 0.14919257363E+01
 0.15024890089E+01 0.15024902267E+01 0.14919293497E+01 0.14715179495E+01 0.14426494546E+01
 0.14073364409E+01 0.13681098408E+01 0.13278757947E+01 0.12897306781E+01 0.12567432956E+01
 0.12317225841E+01 0.12169950319E+01 0.12177494197E+01 0.12242263812E+01 0.12431961662E+01
 0.12733095281E+01 0.13124290509E+01 0.13577918016E+01 0.14062226477E+01 0.14543770193E+01
 0.14989863671E+01 0.15370812817E+01 0.15661751946E+01 0.15844016771E+01 0.15906064555E+01
 0.15843992514E+01 0.15661704079E+01 0.15370742832E+01 0.14989774167E+01 0.14543664979E+01
 0.14062110343E+01 0.13577796143E+01 0.13124167635E+01 0.12732974881E+01 0.12431845400E+01
 0.12242151473E+01 0.12177384143E+01 0.12242152273E+01 0.12431846964E+01 0.12732977136E+01
 0.13124170470E+01 0.13577799402E+01 0.14062113833E+01 0.14543668469E+01 0.14989777399E+01
 0.15370745533E+01 0.15661705986E+01 0.15843993395E+01 0.15906064233E+01 0.15844015154E+01
 0.15661749042E+01 0.15370808743E+01 0.14989858651E+01 0.14543764542E+01 0.14062220576E+01
 0.13577912277E+01 0.13124285338E+01 0.12733091046E+01 0.12431958662E+01 0.12242262258E+01
 0.12142153499E+01 0.12169953028E+01 0.12317229941E+01 0.12567438198E+01 0.12897312828E+01
 0.13278764400E+01 0.13681104840E+01 0.14073370401E+01 0.14426499730E+01 0.14715183584E+01
 0.14919296305E+01 0.15024903719E+01 0.15024890217E+01 0.14919256286E+01 0.14715118584E+01
 0.14426412477E+01 0.14073264874E+01 0.13680986078E+01 0.13278637985E+01 0.12897184101E+01
 0.12567311413E+01 0.12317107612E+01 0.12169835685E+01 0.12142039960E+01 0.12242151706E+01
 0.12469683616E+01 0.12815054828E+01 0.13260075023E+01 0.13779100121E+01 0.14340815611E+01
 0.14910508865E+01 0.15452602350E+01 0.15933182704E+01 0.16322291039E+01 0.16595815318E+01
 0.16736908621E+01 0.16736919019E+01 0.16595846399E+01 0.16322342323E+01 0.15933252989E+01
 0.15452689377E+01 0.14910609234E+01 0.14340925095E+01 0.13779214339E+01 0.13260190290E+01
 0.12815168892E+01 0.12469796012E+01 0.12242263602E+01 0.12034793299E+01 0.12023403694E+01
 0.12124549594E+01 0.12319933769E+01 0.12585770492E+01 0.12894719675E+01 0.13218004285E+01
 0.13527502540E+01 0.13797632862E+01 0.14006917449E+01 0.14139181702E+01 0.14184392219E+01
 0.14139150643E+01 0.14006856785E+01 0.13797545534E+01 0.13527392946E+01 0.13217878047E+01
 0.12894583129E+01 0.12585629913E+01 0.12319794485E+01 0.12124415225E+01 0.12023275742E+01
 0.12034671232E+01 0.12169836067E+01 0.12431846043E+01 0.12815054477E+01 0.13305101957E+01
 0.13879538918E+01 0.14509079545E+01 0.15159443619E+01 0.15793657156E+01 0.16374612342E+01
 0.16867659737E+01 0.17243020004E+01 0.17477839095E+01 0.17557752085E+01 0.17477859944E+01
 0.17243061489E+01 0.16867721153E+01 0.16374692089E+01 0.15793752483E+01 0.15159550718E+01
 0.14509194060E+01 0.13879656748E+01 0.13305220107E+01 0.12815171646E+01 0.12431962746E+01
 0.12169954219E+01 0.11854139187E+01 0.11803935637E+01 0.11860004049E+01 0.12003431972E+01
 0.12210748116E+01 0.12455760923E+01 0.12711513853E+01 0.12952193553E+01 0.13154862261E+01
 0.13300932307E+01 0.13377330956E+01 0.13377312632E+01 0.13300878305E+01 0.13154775477E+01
 0.12952078709E+01 0.12711377221E+01 0.12455609794E+01 0.12210590001E+01 0.12003273658E+01
 0.11859850708E+01 0.11803790227E+01 0.11854002310E+01 0.12023276240E+01 0.12317108521E+01
 0.12732976104E+01 0.13260074567E+01 0.13879538818E+01 0.14565174338E+01 0.15284720452E+01
 0.16001631583E+01 0.16677308795E+01 0.17273658618E+01 0.17755806016E+01 0.18094742446E+01
 0.18269653778E+01 0.18269664471E+01 0.18094774407E+01 0.17755858750E+01 0.17273730917E+01
 0.16677398425E+01 0.16001735223E+01 0.15284834028E+01 0.14565293711E+01 0.13879660623E+01
 0.13260196935E+01 0.12733098998E+01 0.12317233544E+01 0.12023405945E+01 0.11606227904E+01
 0.11524644147E+01 0.11545680345E+01 0.11650211713E+01 0.11814980531E+01 0.12014349007E+01
 0.12222187249E+01 0.12413772057E+01 0.12567591028E+01 0.12666949741E+01 0.12701263991E+01
 0.12666907633E+01 0.12567509151E+01 0.12413654988E+01 0.12222041546E+01 0.12014182697E+01
 0.11814802327E+01 0.11650030024E+01 0.11545502264E+01 0.11524474626E+01 0.11606069348E+01
 0.11803790800E+01 0.12124416326E+01 0.12567312980E+01 0.13124169591E+01 0.13779099834E+01
 0.14509079627E+01 0.15284720641E+01 0.16071426288E+01 0.16831001074E+01 0.17523767579E+01
 0.18111173890E+01 0.18558748878E+01 0.18839110187E+01 0.18934605019E+01 0.18839131842E+01
 0.18558791805E+01 0.18111237119E+01 0.17523849291E+01 0.16831098477E+01 0.16071535814E+01
 0.15284838475E+01 0.14509202464E+01 0.13779225609E+01 0.13124297934E+01 0.12567445201E+01
 0.12124554896E+01 0.11803938431E+01 0.11313597089E+01 0.11219326184E+01 0.11227587471E+01
 0.11318462384E+01 0.11467812396E+01 0.11649049397E+01 0.11835134324E+01 0.12000716463E+01
 0.12124293585E+01 0.12190202273E+01 0.12190178625E+01 0.12124223905E+01 0.12000604504E+01
 0.11834986165E+01 0.11648873076E+01 0.11467617245E+01 0.11318258094E+01 0.11227383013E+01
 0.11219128791E+01 0.11313411539E+01 0.11524475230E+01 0.11859851916E+01 0.12319796279E+01
 0.12897186441E+01 0.13577798965E+01 0.14340815793E+01 0.15159444193E+01 0.16001632282E+01
 0.16831001594E+01 0.17608221735E+01 0.18293048886E+01 0.18847104813E+01 0.19237212361E+01
 0.19438816013E+01 0.19438826667E+01 0.19237244092E+01 0.18847156864E+01 0.18293119811E+01
 0.17608309306E+01 0.16831102913E+01 0.16001744174E+01 0.15159563814E+01 0.14340941284E+01
 0.13577929920E+01 0.12897323999E+01 0.12319942741E+01 0.11860009955E+01 0.11524646856E+01
 0.11023497381E+01 0.10949568598E+01 0.10981641779E+01 0.11097530499E+01 0.11270210149E+01
 0.11469713938E+01 0.11665490928E+01 0.11829181668E+01 0.11937600367E+01 0.11975498221E+01
 0.11937550799E+01 0.11829084857E+01 0.11665351531E+01 0.11469538856E+01 0.11270008170E+01
 0.11097311601E+01 0.10981416132E+01 0.10949345444E+01 0.11023284041E+01 0.11219129378E+01
 0.11545503488E+01 0.12003275550E+01 0.12585632479E+01 0.13278641200E+01 0.14062114145E+01
 0.14910509838E+01 0.15793658558E+01 0.16677310351E+01 0.17523768974E+01 0.18293049768E+01
 0.18944955689E+01 0.19442175983E+01 0.19754071674E+01 0.19860405035E+01 0.19754091600E+01
 0.19442215333E+01 0.18945013406E+01 0.18293124214E+01 0.17523858023E+01 0.16677411677E+01
 0.15793770091E+01 0.14910630283E+01 0.14062243374E+01 0.13278780363E+01 0.12585783711E+01
 0.12003441305E+01 0.11545685610E+01 0.11219328141E+01 0.10814303010E+01 0.10811185737E+01
 0.10921141639E+01 0.11117375421E+01 0.11366701038E+01 0.11631707536E+01 0.11874001021E+01
 0.12058479292E+01 0.12158093973E+01 0.12158069770E+01 0.12058407447E+01 0.11873883962E+01
 0.11631549669E+01 0.11366508951E+01 0.11117157720E+01 0.10920908284E+01 0.10810947000E+01
 0.10814068288E+01 0.10949345969E+01 0.11227384161E+01 0.11650031880E+01 0.12210592619E+01
 0.12894586535E+01 0.13680990252E+01 0.14543669850E+01 0.15452604450E+01 0.16374614918E+01
 0.17273661383E+01 0.18111176514E+01 0.18847106933E+01 0.19442177220E+01 0.19861396158E+01
 0.20078204853E+01 0.20078213757E+01 0.19861422652E+01 0.19442220653E+01 0.18847166256E+01
 0.18111250397E+01 0.17273748436E+01 0.16374714020E+01 0.15452715111E+01 0.14543792477E+01
 0.13681126198E+01 0.12894737844E+01 0.12210761446E+01 0.11650219684E+01 0.11227590846E+01
 0.10949569169E+01 0.10804036329E+01 0.10946726187E+01 0.11214846195E+01 0.11572940346E+01
 0.11975477261E+01 0.12369808252E+01 0.12701713879E+01 0.12923208173E+01 0.13001005310E+01
 0.12923167112E+01 0.12701631730E+01 0.12369685680E+01 0.11975316663E+01 0.11572746642E+01
 0.11214626949E+01 0.10946490940E+01 0.10803795386E+01 0.10810947423E+01 0.10981417120E+01
 0.11318259781E+01 0.11814804824E+01 0.12455613178E+01 0.13217882349E+01 0.14073270071E+01
 0.14989780169E+01 0.15933186259E+01 0.16867663818E+01 0.17755810318E+01 0.18558753052E+01
 0.19237216029E+01 0.19754074449E+01 0.20078206380E+01 0.20188715330E+01 0.20078221422E+01
 0.19754104246E+01 0.19237260072E+01 0.18558810739E+01 0.17755881149E+01 0.16867747634E+01
 0.15933283456E+01 0.14989891825E+01 0.14073397891E+01 0.13218028383E+01 0.12455779288E+01
 0.11814991987E+01 0.11318467330E+01 0.10981642123E+01 0.10811184368E+01 0.11170995045E+01
 0.11576839216E+01 0.12130407937E+01 0.12778951670E+01 0.13451456227E+01 0.14064291921E+01
 0.14532775461E+01 0.14786920608E+01 0.14786907806E+01 0.14532735552E+01 0.14064221213E+01
 0.13451350875E+01 0.12778809989E+01 0.12130231997E+01 0.11576635143E+01 0.11170772089E+01
 0.10946491238E+01 0.10920909046E+01 0.11097313006E+01 0.11467619460E+01 0.12014185854E+01
 0.12711381405E+01 0.13527398187E+01 0.14426418734E+01 0.15370749986E+01 0.16322296339E+01
 0.17243025870E+01 0.18094748550E+01 0.18839116158E+01 0.19438821455E+01 0.19860409551E+01
 0.20078216993E+01 0.20078223110E+01 0.19860427854E+01 0.19438851843E+01 0.18839158605E+01
 0.18094803282E+01 0.17243093539E+01 0.16322378141E+01 0.15370847650E+01 0.14426534367E+01
 0.13527533917E+01 0.12711538871E+01 0.12014365556E+01 0.11467820096E+01 0.11097530915E+01