unknown system                          
   1.00000000000000     
     0.000004    2.028819    2.028819
     2.028819    0.000004    2.028819
     2.028819    2.028819    0.000004
   Li   F 
     1     1
Direct
  0.000000  0.000000  0.000000
  0.500000  0.500000  0.500000
 
   48   48   48
 0.15852942790E+04 0.80291393366E+03 0.41538553970E+03 0.21921271991E+03 0.11785314299E+03
 0.64454515899E+02 0.35852632571E+02 0.20336985714E+02 0.11834206902E+02 0.71493299300E+01
 0.45554044149E+01 0.31289669202E+01 0.23077586526E+01 0.19210713172E+01 0.17142250623E+01
 0.16168340203E+01 0.15833104391E+01 0.15859757659E+01 0.16061113430E+01 0.16336592090E+01
 0.16613679234E+01 0.16862891240E+01 0.17051352432E+01 0.17173656463E+01 0.17211667379E+01
 0.17173656402E+01 0.17051352315E+01 0.16862891062E+01 0.16613679006E+01 0.16336591786E+01
 0.16061113052E+01 0.15859757127E+01 0.15833103645E+01 0.16168339013E+01 0.17142248777E+01
 0.19210710096E+01 0.23077581531E+01 0.31289659704E+01 0.45554027297E+01 0.71493269300E+01
 0.11834201510E+02 0.20336975949E+02 0.35852614709E+02 0.64454482825E+02 0.11785308084E+03
 0.21921260099E+03 0.41538530744E+03 0.80291347095E+03 0.80291400163E+03 0.49463907393E+03
 0.27430677413E+03 0.15022421759E+03 0.82750672622E+02 0.46098449384E+02 0.26066924551E+02
 0.15044560300E+02 0.89463189155E+01 0.55631189284E+01 0.36861565718E+01 0.26517978522E+01
 0.20768602758E+01 0.17948311151E+01 0.16551666394E+01 0.15948124554E+01 0.15844539080E+01
 0.15976875276E+01 0.16236862630E+01 0.16519549696E+01 0.16793058962E+01 0.17014970890E+01
 0.17174438718E+01 0.17255722011E+01 0.17255699632E+01 0.17174646214E+01 0.17014522935E+01
 0.16793482386E+01 0.16519399580E+01 0.16237024084E+01 0.15976726813E+01 0.15844570997E+01
 0.15948096074E+01 0.16551611793E+01 0.17948466742E+01 0.20768297531E+01 0.26518409233E+01
 0.36860842651E+01 0.55633494670E+01 0.89462411260E+01 0.15045046733E+02 0.26066681959E+02
 0.46099296918E+02 0.82751082286E+02 0.15022449934E+03 0.27430829037E+03 0.49463853331E+03
 0.80291396119E+03 0.41538557534E+03 0.27430678322E+03 0.16399244607E+03 0.94719756261E+02
 0.54227195616E+02 0.31141934726E+02 0.18096748244E+02 0.10744373772E+02 0.66099049044E+01
 0.42863932689E+01 0.29953421916E+01 0.22500433893E+01 0.18935496241E+01 0.17057950446E+01
 0.16180744405E+01 0.15915951614E+01 0.15977280776E+01 0.16210775814E+01 0.16501976874E+01
 0.16798716196E+01 0.17056390545E+01 0.17256843091E+01 0.17381139040E+01 0.17424721293E+01
 0.17380958178E+01 0.17257071857E+01 0.17056401404E+01 0.16798469125E+01 0.16501931945E+01
 0.16210780445E+01 0.15977361360E+01 0.15915978488E+01 0.16180800109E+01 0.17057870851E+01
 0.18935770549E+01 0.22500129226E+01 0.29952719268E+01 0.42864769191E+01 0.66102907154E+01
 0.10744494760E+02 0.18097250909E+02 0.31141866747E+02 0.54227847966E+02 0.94719954801E+02
 0.16399286761E+03 0.27430773896E+03 0.41538639320E+03 0.49463872008E+03 0.21921273893E+03
 0.15022422499E+03 0.94719758225E+02 0.57370394519E+02 0.34183173722E+02 0.20336879659E+02
 0.12234032874E+02 0.75474620621E+01 0.48596246770E+01 0.33343438272E+01 0.24759118516E+01
 0.20006138463E+01 0.17645891145E+01 0.16498078798E+01 0.16059015161E+01 0.16045859523E+01
 0.16246389217E+01 0.16547928352E+01 0.16867716592E+01 0.17166516381E+01 0.17409851954E+01
 0.17583335263E+01 0.17671394352E+01 0.17671864660E+01 0.17582798406E+01 0.17410359784E+01
 0.17166001171E+01 0.16868453309E+01 0.16547473188E+01 0.16246800843E+01 0.16045332610E+01
 0.16059383151E+01 0.16497699423E+01 0.17646124925E+01 0.20006018949E+01 0.24759629858E+01
 0.33344297466E+01 0.48594658920E+01 0.75473704591E+01 0.12233903316E+02 0.20337254992E+02
 0.34183532495E+02 0.57371293396E+02 0.94720449738E+02 0.15022493045E+03 0.21921275095E+03
 0.27430780564E+03 0.27430842298E+03 0.11785315334E+03 0.82750677489E+02 0.54227197489E+02
 0.34183174243E+02 0.21166045088E+02 0.13085707886E+02 0.82052387064E+01 0.53144803865E+01
 0.36272746015E+01 0.26601149341E+01 0.21036181536E+01 0.18255367484E+01 0.16858578453E+01
 0.16249493125E+01 0.16164868765E+01 0.16326906540E+01 0.16644276732E+01 0.16983846107E+01
 0.17333247553E+01 0.17617634206E+01 0.17851739569E+01 0.17983133393E+01 0.18040147966E+01
 0.17983372470E+01 0.17851527136E+01 0.17617610611E+01 0.17333278820E+01 0.16983588187E+01
 0.16644302513E+01 0.16326900176E+01 0.16165023229E+01 0.16249416259E+01 0.16858892022E+01
 0.18255074221E+01 0.21035883491E+01 0.26601230063E+01 0.36275288884E+01 0.53145701710E+01
 0.82054231794E+01 0.13085529485E+02 0.21165569049E+02 0.34183372603E+02 0.54226560184E+02
 0.82751117864E+02 0.11785436607E+03 0.15022495680E+03 0.16399292739E+03 0.15022457752E+03
 0.64454521625E+02 0.46098452388E+02 0.31141936103E+02 0.20336880196E+02 0.13085708039E+02
 0.84429913757E+01 0.55681462355E+01 0.38277374640E+01 0.28031981045E+01 0.21888516390E+01
 0.18818530431E+01 0.17205221034E+01 0.16466648693E+01 0.16302364819E+01 0.16444005801E+01
 0.16763345096E+01 0.17139978135E+01 0.17528168326E+01 0.17873789129E+01 0.18158670873E+01
 0.18356480079E+01 0.18459641715E+01 0.18459614842E+01 0.18356308271E+01 0.18159058212E+01
 0.17873593337E+01 0.17528331713E+01 0.17139899189E+01 0.16763674926E+01 0.16443553322E+01
 0.16302803331E+01 0.16465834710E+01 0.17206154952E+01 0.18817956448E+01 0.21889757026E+01
 0.28029900598E+01 0.38279337313E+01 0.55677848880E+01 0.84432145552E+01 0.13085998311E+02
 0.20337049553E+02 0.31143238849E+02 0.46099203184E+02 0.64454935087E+02 0.82751129108E+02
 0.94720476806E+02 0.94719995179E+02 0.82751126506E+02 0.35852635780E+02 0.26066926360E+02
 0.18096749164E+02 0.12234033296E+02 0.82052388728E+01 0.55681462843E+01 0.38988218727E+01
 0.28810920211E+01 0.22456499627E+01 0.19250616944E+01 0.17498206236E+01 0.16668846677E+01
 0.16443369176E+01 0.16569171616E+01 0.16896273597E+01 0.17307698367E+01 0.17742862930E+01
 0.18147614019E+01 0.18496248768E+01 0.18758597063E+01 0.18924965480E+01 0.18979083676E+01
 0.18924955784E+01 0.18758480032E+01 0.18496230224E+01 0.18147334525E+01 0.17743327831E+01
 0.17307003152E+01 0.16896836013E+01 0.16568426317E+01 0.16444510479E+01 0.16667640956E+01
 0.17499258772E+01 0.19248790674E+01 0.22459865386E+01 0.28809622129E+01 0.38992551348E+01
 0.55679248939E+01 0.82051952837E+01 0.12234362923E+02 0.18096000530E+02 0.26067267347E+02
 0.35853235639E+02 0.46099208253E+02 0.54226572763E+02 0.57371313668E+02 0.54227872848E+02
 0.46099321715E+02 0.20336987532E+02 0.15044561377E+02 0.10744374360E+02 0.75474623579E+01
 0.53144805223E+01 0.38277375180E+01 0.28810920369E+01 0.22660435986E+01 0.19483366513E+01
 0.17694852558E+01 0.16822440106E+01 0.16565537025E+01 0.16683136919E+01 0.17023727190E+01
 0.17470032805E+01 0.17954328315E+01 0.18421013991E+01 0.18836875062E+01 0.19171658246E+01
 0.19406541771E+01 0.19527517443E+01 0.19527291302E+01 0.19407088021E+01 0.19171098025E+01
 0.18837621669E+01 0.18420339412E+01 0.17954900814E+01 0.17469432424E+01 0.17024733259E+01
 0.16681848269E+01 0.16566895890E+01 0.16821189463E+01 0.17696958286E+01 0.19479809965E+01
 0.22663377356E+01 0.28806860483E+01 0.38280748720E+01 0.53146826565E+01 0.75469188957E+01
 0.10745586235E+02 0.15044640871E+02 0.20336644947E+02 0.26067269729E+02 0.31143244862E+02
 0.34183382765E+02 0.34183545970E+02 0.31141881532E+02 0.26066695862E+02 0.11834207941E+02
 0.89463195536E+01 0.66099052703E+01 0.48596248741E+01 0.36272746994E+01 0.28031981499E+01
 0.22456499789E+01 0.19483366563E+01 0.17761977074E+01 0.16908432975E+01 0.16646944089E+01
 0.16771141743E+01 0.17127403241E+01 0.17610656901E+01 0.18142552240E+01 0.18672454874E+01
 0.19157970386E+01 0.19569375041E+01 0.19880755809E+01 0.20075188363E+01 0.20141194267E+01
 0.20074839789E+01 0.19880934113E+01 0.19569052377E+01 0.19158300758E+01 0.18671781895E+01
 0.18143534242E+01 0.17609270787E+01 0.17128797877E+01 0.16769409872E+01 0.16648599528E+01
 0.16905932533E+01 0.17765913881E+01 0.19480278160E+01 0.22461265361E+01 0.28031314779E+01
 0.36268828507E+01 0.48606425835E+01 0.66088467555E+01 0.89468870903E+01 0.11835024009E+02
 0.15044642028E+02 0.18096003476E+02 0.20337054687E+02 0.21165576230E+02 0.20337263450E+02
 0.18097259549E+02 0.15045054560E+02 0.71493305268E+01 0.55631193065E+01 0.42863934935E+01
 0.33343439528E+01 0.26601150016E+01 0.21888516690E+01 0.19250617083E+01 0.17694852610E+01
 0.16908432987E+01 0.16675501804E+01 0.16817188136E+01 0.17196110865E+01 0.17713041245E+01
 0.18291220471E+01 0.18881353032E+01 0.19436398665E+01 0.19926602702E+01 0.20318236661E+01
 0.20594784993E+01 0.20734577464E+01 0.20736374836E+01 0.20593118588E+01 0.20320172176E+01
 0.19924516780E+01 0.19438629351E+01 0.18879161249E+01 0.18293382994E+01 0.17710725892E+01
 0.17198871112E+01 0.16814776134E+01 0.16678653747E+01 0.16904249685E+01 0.17697777558E+01
 0.19246973734E+01 0.21888162897E+01 0.26608938739E+01 0.33333034001E+01 0.42879441564E+01
 0.55626667428E+01 0.71485632072E+01 0.89468876675E+01 0.10745587712E+02 0.12234365548E+02
 0.13086002124E+02 0.13085534223E+02 0.12233908478E+02 0.10744499777E+02 0.89462455454E+01
 0.45554047601E+01 0.36861567937E+01 0.29953423278E+01 0.24759119309E+01 0.21036181938E+01
 0.18818530644E+01 0.17498206333E+01 0.16822440143E+01 0.16646944096E+01 0.16817188134E+01
 0.17221376239E+01 0.17766219008E+01 0.18387212462E+01 0.19029893550E+01 0.19653040461E+01
 0.20217617618E+01 0.20694443641E+01 0.21054214645E+01 0.21279841894E+01 0.21355372692E+01
 0.21279945042E+01 0.21053960684E+01 0.20694498503E+01 0.20217558092E+01 0.19652962736E+01
 0.19029578157E+01 0.18387728285E+01 0.17765483656E+01 0.17221169812E+01 0.16816609111E+01
 0.16647950892E+01 0.16823267363E+01 0.17497286889E+01 0.18824355559E+01 0.21022484658E+01
 0.24776448435E+01 0.29935227182E+01 0.36865397656E+01 0.45569206197E+01 0.55626670374E+01
 0.66088475112E+01 0.75469202583E+01 0.82051973153E+01 0.84432171811E+01 0.82054261877E+01
 0.75473735555E+01 0.66102936188E+01 0.55633519834E+01 0.31289671199E+01 0.26517979850E+01
 0.22500434639E+01 0.20006138922E+01 0.18255367741E+01 0.17205221163E+01 0.16668846732E+01
 0.16565537036E+01 0.16771141734E+01 0.17196110849E+01 0.17766218998E+01 0.18419351811E+01
 0.19108498387E+01 0.19788714978E+01 0.20425402068E+01 0.20981512121E+01 0.21429102938E+01
 0.21741577105E+01 0.21902923810E+01 0.21902629156E+01 0.21741719780E+01 0.21428939777E+01
 0.20981868369E+01 0.20424940193E+01 0.19789415886E+01 0.19108069516E+01 0.18419629752E+01
 0.17766708409E+01 0.17196453398E+01 0.16770744907E+01 0.16564088937E+01 0.16670779317E+01
 0.17198596298E+01 0.18268662813E+01 0.19992769568E+01 0.22508088113E+01 0.26530309724E+01
 0.31262662885E+01 0.36865399220E+01 0.42879445540E+01 0.48606433033E+01 0.53146837491E+01
 0.55679263478E+01 0.55677866217E+01 0.53145720420E+01 0.48594677418E+01 0.42864786048E+01
 0.36860856947E+01 0.23077587590E+01 0.20768603478E+01 0.18935496710E+01 0.17645891419E+01
 0.16858578603E+01 0.16466648760E+01 0.16443369190E+01 0.16683136905E+01 0.17127403213E+01
 0.17713041215E+01 0.18387212435E+01 0.19108498371E+01 0.19835243426E+01 0.20532995254E+01
 0.21162310935E+01 0.21693351685E+01 0.22094451661E+01 0.22345759479E+01 0.22430415992E+01
 0.22345774633E+01 0.22094667290E+01 0.21693091754E+01 0.21162236717E+01 0.20532805135E+01
 0.19834862829E+01 0.19108076432E+01 0.18386913316E+01 0.17712869669E+01 0.17127669164E+01
 0.16683955153E+01 0.16441717750E+01 0.16472056678E+01 0.16848857412E+01 0.17652481706E+01
 0.18937593761E+01 0.20750837341E+01 0.23096717147E+01 0.26530310588E+01 0.29935229332E+01
 0.33333037897E+01 0.36268834481E+01 0.38280756833E+01 0.38992561298E+01 0.38279348437E+01
 0.36275300344E+01 0.33344308410E+01 0.29952729098E+01 0.26518417603E+01 0.19210713830E+01
 0.17948311587E+01 0.17057950716E+01 0.16498078955E+01 0.16249493195E+01 0.16302364833E+01
 0.16569171596E+01 0.17023727148E+01 0.17610656850E+01 0.18291220419E+01 0.19029893503E+01
 0.19788714943E+01 0.20532995234E+01 0.21224042701E+01 0.21830008607E+01 0.22315934971E+01
 0.22657303494E+01 0.22832300250E+01 0.22832764815E+01 0.22656711834E+01 0.22316184073E+01
 0.21829573356E+01 0.21224846664E+01 0.20532279452E+01 0.19789842037E+01 0.19029398144E+01
 0.18290763006E+01 0.17609556197E+01 0.17024308943E+01 0.16570586474E+01 0.16297975056E+01
 0.16256848848E+01 0.16494719788E+01 0.17054182326E+01 0.17960820920E+01 0.19204440275E+01
 0.20750837829E+01 0.22508089281E+01 0.24776450661E+01 0.26608942143E+01 0.28031319422E+01
 0.28806866282E+01 0.28809628804E+01 0.28029907753E+01 0.26601237197E+01 0.24759636467E+01
 0.22500134536E+01 0.20768302063E+01 0.17142251005E+01 0.16551666648E+01 0.16180744556E+01
 0.16059015229E+01 0.16164868779E+01 0.16444005777E+01 0.16896273547E+01 0.17470032739E+01
 0.18142552167E+01 0.18881352958E+01 0.19653040392E+01 0.20425402009E+01 0.21162310893E+01
 0.21830008584E+01 0.22391405402E+01 0.22818164689E+01 0.23083949397E+01 0.23174952563E+01
 0.23083990081E+01 0.22818175169E+01 0.22391936299E+01 0.21830186255E+01 0.21162972712E+01
 0.20426536955E+01 0.19653309963E+01 0.18882328656E+01 0.18142921150E+01 0.17469254519E+01
 0.16893942219E+01 0.16448475824E+01 0.16157460651E+01 0.16061962228E+01 0.16183710511E+01
 0.16543979214E+01 0.17144371854E+01 0.17960821259E+01 0.18937594530E+01 0.19992770875E+01
 0.21022486593E+01 0.21888165495E+01 0.22461268601E+01 0.22663381126E+01 0.22459869505E+01
 0.21889761251E+01 0.21035887633E+01 0.20006022803E+01 0.18935773943E+01 0.17948469554E+01
 0.16168340432E+01 0.15948124689E+01 0.15915951677E+01 0.16045859536E+01 0.16326906512E+01
 0.16763345038E+01 0.17307698289E+01 0.17954328224E+01 0.18672454776E+01 0.19436398566E+01
 0.20217617525E+01 0.20981512040E+01 0.21693351619E+01 0.22315934925E+01 0.22818164665E+01
 0.23169726491E+01 0.23351512927E+01 0.23351151763E+01 0.23170092907E+01 0.22818095973E+01
 0.22315935876E+01 0.21692409180E+01 0.20981112716E+01 0.20216893673E+01 0.19438334465E+01
 0.18673800422E+01 0.17954319307E+01 0.17307436434E+01 0.16760722879E+01 0.16334478474E+01
 0.16043794649E+01 0.15912639600E+01 0.15954158953E+01 0.16165842771E+01 0.16543979480E+01
 0.17054182899E+01 0.17652482636E+01 0.18268664140E+01 0.18824357308E+01 0.19246975907E+01
 0.19480280703E+01 0.19479812783E+01 0.19248793619E+01 0.18817959380E+01 0.18255076968E+01
 0.17646127386E+01 0.17057872975E+01 0.16551613568E+01 0.15833104510E+01 0.15844539142E+01
 0.15977280789E+01 0.16246389187E+01 0.16644276673E+01 0.17139978052E+01 0.17742862828E+01
 0.18421013877E+01 0.19157970265E+01 0.19926602581E+01 0.20694443524E+01 0.21429102832E+01
 0.22094451571E+01 0.22657303424E+01 0.23083949349E+01 0.23351512903E+01 0.23441960695E+01
 0.23351659067E+01 0.23084118124E+01 0.22656256468E+01 0.22093386218E+01 0.21427095454E+01
 0.20691639239E+01 0.19925082949E+01 0.19156890993E+01 0.18423333763E+01 0.17744416971E+01
 0.17140940142E+01 0.16635885143E+01 0.16248892620E+01 0.15978010038E+01 0.15840664442E+01
 0.15835162246E+01 0.15954159193E+01 0.16183710998E+01 0.16494720539E+01 0.16848858442E+01
 0.17198597615E+01 0.17497288484E+01 0.17697779389E+01 0.17765915893E+01 0.17696960394E+01
 0.17499260899E+01 0.17206156993E+01 0.16858893925E+01 0.16497701114E+01 0.16180801537E+01
 0.15948097213E+01 0.15859757721E+01 0.15976875290E+01 0.16210775788E+01 0.16547928295E+01
 0.16983846021E+01 0.17528168217E+01 0.18147613893E+01 0.18836874924E+01 0.19569374897E+01
 0.20318236516E+01 0.21054214506E+01 0.21741576977E+01 0.22345759366E+01 0.22832300157E+01
 0.23174952493E+01 0.23351151717E+01 0.23351659045E+01 0.23174610318E+01 0.22831359268E+01
 0.22344141610E+01 0.21740181140E+01 0.21052947712E+01 0.20317159254E+01 0.19565657119E+01
 0.18836722399E+01 0.18150825044E+01 0.17527571566E+01 0.16986616601E+01 0.16546689756E+01
 0.16212878761E+01 0.15979959475E+01 0.15858230201E+01 0.15840664668E+01 0.15912640059E+01
 0.16061962908E+01 0.16256849750E+01 0.16472057791E+01 0.16670780625E+01 0.16823268838E+01
 0.16904251292E+01 0.16905934216E+01 0.16821191164E+01 0.16667642600E+01 0.16465836248E+01
 0.16249417620E+01 0.16059384313E+01 0.15915979454E+01 0.15844571772E+01 0.16061113447E+01
 0.16236862612E+01 0.16501976823E+01 0.16867716509E+01 0.17333247445E+01 0.17873789001E+01
 0.18496248622E+01 0.19171658089E+01 0.19880755645E+01 0.20594784828E+01 0.21279841734E+01
 0.21902923661E+01 0.22430415859E+01 0.22832764702E+01 0.23083989992E+01 0.23170092842E+01
 0.23084118083E+01 0.22831359248E+01 0.22429607392E+01 0.21901822220E+01 0.21278607487E+01
 0.20592501424E+01 0.19877137943E+01 0.19170756249E+01 0.18494156446E+01 0.17876181850E+01
 0.17330937332E+01 0.16867951875E+01 0.16501501506E+01 0.16235143659E+01 0.16058249902E+01
 0.15979959730E+01 0.15978010512E+01 0.16043795340E+01 0.16157461531E+01 0.16297976112E+01
 0.16441718958E+01 0.16564090274E+01 0.16647952318E+01 0.16678655217E+01 0.16648600998E+01
 0.16566897308E+01 0.16444511813E+01 0.16302804534E+01 0.16165024298E+01 0.16045333522E+01
 0.15977362096E+01 0.15976727376E+01 0.16336592086E+01 0.16519549656E+01 0.16798716123E+01
 0.17166516281E+01 0.17617634080E+01 0.18158670724E+01 0.18758596898E+01 0.19406541594E+01
 0.20075188180E+01 0.20734577281E+01 0.21355372516E+01 0.21902628992E+01 0.22345774485E+01
 0.22656711707E+01 0.22818175065E+01 0.22818095893E+01 0.22656256411E+01 0.22344141575E+01
 0.21901822204E+01 0.21355092125E+01 0.20734606583E+01 0.20072267743E+01 0.19405404402E+01
 0.18755003632E+01 0.18158724287E+01 0.17627196332E+01 0.17166201970E+01 0.16792246206E+01
 0.16521632668E+01 0.16337359984E+01 0.16235143927E+01 0.16212879263E+01 0.16248893335E+01
 0.16334479390E+01 0.16448476905E+01 0.16570587702E+01 0.16683956482E+01 0.16770746309E+01
 0.16816610543E+01 0.16814777564E+01 0.16769411254E+01 0.16681849575E+01 0.16568427501E+01
 0.16443554377E+01 0.16326901066E+01 0.16246801571E+01 0.16210781025E+01 0.16237024520E+01
 0.16613679207E+01 0.16793058904E+01 0.17056390457E+01 0.17409851836E+01 0.17851739427E+01
 0.18356479917E+01 0.18924965301E+01 0.19527517254E+01 0.20141194072E+01 0.20736374641E+01
 0.21279944854E+01 0.21741719604E+01 0.22094667132E+01 0.22316183936E+01 0.22391936184E+01
 0.22315935785E+01 0.22093386150E+01 0.21740181093E+01 0.21278607459E+01 0.20734606571E+01
 0.20138843627E+01 0.19525976886E+01 0.18918706862E+01 0.18357021075E+01 0.17851481121E+01
 0.17410474616E+01 0.17053158450E+01 0.16791678942E+01 0.16620284451E+01 0.16521632929E+01
 0.16501502042E+01 0.16546690518E+01 0.16635886120E+01 0.16760724031E+01 0.16893943515E+01
 0.17024310349E+01 0.17127670640E+01 0.17196454902E+01 0.17221171303E+01 0.17198872550E+01
 0.17128799229E+01 0.17024734491E+01 0.16896837116E+01 0.16763675874E+01 0.16644303320E+01
 0.16547473848E+01 0.16501932445E+01 0.16519399932E+01 0.16862891201E+01 0.17014970817E+01
 0.17256842987E+01 0.17583335133E+01 0.17983133238E+01 0.18459641539E+01 0.18979083485E+01
 0.19527291101E+01 0.20074839584E+01 0.20593118385E+01 0.21053960490E+01 0.21428939597E+01
 0.21693091591E+01 0.21829573213E+01 0.21830186135E+01 0.21692409083E+01 0.21427095380E+01
 0.21052947657E+01 0.20592501387E+01 0.20072267720E+01 0.19525976876E+01 0.18974543107E+01
 0.18459408999E+01 0.17990237929E+01 0.17582967366E+01 0.17256343588E+01 0.17015662091E+01
 0.16863974912E+01 0.16791679220E+01 0.16792246782E+01 0.16867952714E+01 0.16986617660E+01
 0.17140941404E+01 0.17307437845E+01 0.17469256051E+01 0.17609557799E+01 0.17712871307E+01
 0.17766710035E+01 0.17765485230E+01 0.17710727382E+01 0.17609272158E+01 0.17469433660E+01
 0.17307004227E+01 0.17139900108E+01 0.16983588928E+01 0.16868453882E+01 0.16798469550E+01
 0.16793482663E+01 0.17051352376E+01 0.17174438632E+01 0.17381138925E+01 0.17671394209E+01
 0.18040147801E+01 0.18459614660E+01 0.18924955588E+01 0.19407087817E+01 0.19880933906E+01
 0.20320171972E+01 0.20694498308E+01 0.20981868188E+01 0.21162236554E+01 0.21224846521E+01
 0.21162972591E+01 0.20981112617E+01 0.20691639161E+01 0.20317159195E+01 0.19877137899E+01
 0.19405404373E+01 0.18918706845E+01 0.18459408991E+01 0.18037081972E+01 0.17672284628E+01
 0.17383987300E+01 0.17173853288E+01 0.17050525528E+01 0.17015662399E+01 0.17053159056E+01
 0.17166202872E+01 0.17330938464E+01 0.17527572921E+01 0.17744418503E+01 0.17954320977E+01
 0.18142922915E+01 0.18290764811E+01 0.18386915120E+01 0.18419631507E+01 0.18387729954E+01
 0.18293384535E+01 0.18143535635E+01 0.17954902032E+01 0.17743328881E+01 0.17528332574E+01
 0.17333279519E+01 0.17166001706E+01 0.17056401773E+01 0.17014523149E+01 0.17173656399E+01
 0.17255721915E+01 0.17424721169E+01 0.17671864512E+01 0.17983372300E+01 0.18356308083E+01
 0.18758479833E+01 0.19171097819E+01 0.19569052170E+01 0.19924516578E+01 0.20217557901E+01
 0.20424940016E+01 0.20532804976E+01 0.20532279312E+01 0.20426536836E+01 0.20216893575E+01
 0.19925082870E+01 0.19565657057E+01 0.19170756202E+01 0.18755003598E+01 0.18357021051E+01
 0.17990237914E+01 0.17672284620E+01 0.17427381635E+01 0.17255198141E+01 0.17168515088E+01
 0.17173853618E+01 0.17256344217E+01 0.17410475553E+01 0.17627197529E+01 0.17876183278E+01
 0.18150826686E+01 0.18423335559E+01 0.18673802344E+01 0.18882330641E+01 0.19029400146E+01
 0.19108078389E+01 0.19108071392E+01 0.19029579904E+01 0.18879162845E+01 0.18671783308E+01
 0.18420340640E+01 0.18147335548E+01 0.17873594176E+01 0.17617611251E+01 0.17410360242E+01
 0.17257072157E+01 0.17174646358E+01 0.17211667304E+01 0.17255699528E+01 0.17380958049E+01
 0.17582798252E+01 0.17851526963E+01 0.18159058027E+01 0.18496230028E+01 0.18837621469E+01
 0.19158300559E+01 0.19438629158E+01 0.19652962552E+01 0.19789415717E+01 0.19834862678E+01
 0.19789841903E+01 0.19653309849E+01 0.19438334369E+01 0.19156890915E+01 0.18836722336E+01
 0.18494156397E+01 0.18158724247E+01 0.17851481092E+01 0.17582967344E+01 0.17383987285E+01
 0.17255198133E+01 0.17209021033E+01 0.17255198479E+01 0.17383987945E+01 0.17582968322E+01
 0.17851482366E+01 0.18158725774E+01 0.18494158182E+01 0.18836724315E+01 0.19156893060E+01
 0.19438336618E+01 0.19653312155E+01 0.19789844206E+01 0.19834864923E+01 0.19789417855E+01
 0.19652964545E+01 0.19438630965E+01 0.19158302167E+01 0.18837622855E+01 0.18496231204E+01
 0.18159058978E+01 0.17851527718E+01 0.17582798816E+01 0.17380958411E+01 0.17255699711E+01
 0.17173656321E+01 0.17174646105E+01 0.17257071724E+01 0.17410359631E+01 0.17617610442E+01
 0.17873593154E+01 0.18147334334E+01 0.18420339218E+01 0.18671781705E+01 0.18879161066E+01
 0.19029577985E+01 0.19108069358E+01 0.19108076289E+01 0.19029398018E+01 0.18882328546E+01
 0.18673800330E+01 0.18423333685E+01 0.18150824980E+01 0.17876181796E+01 0.17627196288E+01
 0.17410474580E+01 0.17256343557E+01 0.17173853265E+01 0.17168515072E+01 0.17255198470E+01
 0.17427382285E+01 0.17672285589E+01 0.17990239202E+01 0.18357022610E+01 0.18755005443E+01
 0.19170758274E+01 0.19565659315E+01 0.19925085262E+01 0.20216896041E+01 0.20426539324E+01
 0.20532281760E+01 0.20532807327E+01 0.20424942223E+01 0.20217559924E+01 0.19924518395E+01
 0.19569053759E+01 0.19171099179E+01 0.18758480953E+01 0.18356308986E+01 0.17983372979E+01
 0.17671864978E+01 0.17424721456E+01 0.17255722014E+01 0.17051352227E+01 0.17014522823E+01
 0.17056401272E+01 0.17166001019E+01 0.17333278655E+01 0.17528331539E+01 0.17743327652E+01
 0.17954900634E+01 0.18143534064E+01 0.18293382823E+01 0.18387728123E+01 0.18419629602E+01
 0.18386913182E+01 0.18290762886E+01 0.18142921045E+01 0.17954319216E+01 0.17744416892E+01
 0.17527571499E+01 0.17330937273E+01 0.17166201921E+01 0.17053158405E+01 0.17015662052E+01
 0.17050525496E+01 0.17173853590E+01 0.17383987925E+01 0.17672285577E+01 0.18037083252E+01
 0.18459410558E+01 0.18918708716E+01 0.19405406502E+01 0.19877140237E+01 0.20317161699E+01
 0.20691641762E+01 0.20981115263E+01 0.21162975215E+01 0.21224849068E+01 0.21162238964E+01
 0.20981870419E+01 0.20694500323E+01 0.20320173747E+01 0.19880935433E+01 0.19407089089E+01
 0.18924956624E+01 0.18459615458E+01 0.18040148393E+01 0.17671394611E+01 0.17381139124E+01
 0.17174438658E+01 0.16862890972E+01 0.16793482274E+01 0.16798468994E+01 0.16868453164E+01
 0.16983588030E+01 0.17139899023E+01 0.17307002982E+01 0.17469432253E+01 0.17609270619E+01
 0.17710725731E+01 0.17765483504E+01 0.17766708267E+01 0.17712869540E+01 0.17609556081E+01
 0.17469254415E+01 0.17307436341E+01 0.17140940061E+01 0.16986616528E+01 0.16867951810E+01
 0.16792246148E+01 0.16791678888E+01 0.16863974864E+01 0.17015662354E+01 0.17256344176E+01
 0.17582968288E+01 0.17990239177E+01 0.18459410544E+01 0.18974544970E+01 0.19525979022E+01
 0.20072270097E+01 0.20592503960E+01 0.21052950354E+01 0.21427098148E+01 0.21692411851E+01
 0.21830188845E+01 0.21829575802E+01 0.21693094006E+01 0.21428941798E+01 0.21053962448E+01
 0.20593120089E+01 0.20074841022E+01 0.19527292290E+01 0.18979084419E+01 0.18459642254E+01
 0.17983133732E+01 0.17583335421E+01 0.17256843106E+01 0.17014970757E+01 0.16613678914E+01
 0.16519399470E+01 0.16501931819E+01 0.16547473048E+01 0.16644302363E+01 0.16763674771E+01
 0.16896835854E+01 0.17024733099E+01 0.17128797718E+01 0.17198870956E+01 0.17221169661E+01
 0.17196453256E+01 0.17127669033E+01 0.17024308823E+01 0.16893942110E+01 0.16760722780E+01
 0.16635885055E+01 0.16546689675E+01 0.16501501433E+01 0.16521632598E+01 0.16620284385E+01
 0.16791679158E+01 0.17053158996E+01 0.17410475498E+01 0.17851482317E+01 0.18357022568E+01
 0.18918708685E+01 0.19525979005E+01 0.20138845997E+01 0.20734609160E+01 0.21278610201E+01
 0.21740183934E+01 0.22093389019E+01 0.22315938615E+01 0.22391938915E+01 0.22316186505E+01
 0.22094669496E+01 0.21741721724E+01 0.21279946713E+01 0.20736376221E+01 0.20141195387E+01
 0.19527518301E+01 0.18924966117E+01 0.18356480499E+01 0.17851739815E+01 0.17409852049E+01
 0.17056390481E+01 0.16793058768E+01 0.16336591697E+01 0.16237023978E+01 0.16210780324E+01
 0.16246800711E+01 0.16326900034E+01 0.16443553170E+01 0.16568426159E+01 0.16681848107E+01
 0.16769409708E+01 0.16814775971E+01 0.16816608952E+01 0.16770744754E+01 0.16683955006E+01
 0.16570586338E+01 0.16448475698E+01 0.16334478360E+01 0.16248892516E+01 0.16212878666E+01
 0.16235143570E+01 0.16337359899E+01 0.16521632849E+01 0.16792246704E+01 0.17166202795E+01
 0.17627197456E+01 0.18158725707E+01 0.18755005382E+01 0.19405406451E+01 0.20072270059E+01
 0.20734609140E+01 0.21355094860E+01 0.21901825064E+01 0.22344144491E+01 0.22656259314E+01
 0.22818098718E+01 0.22818177748E+01 0.22656714197E+01 0.22345776738E+01 0.21902630983E+01
 0.21355374228E+01 0.20734578722E+01 0.20075189348E+01 0.19406542519E+01 0.18758597580E+01
 0.18158671206E+01 0.17617634361E+01 0.17166516372E+01 0.16798716065E+01 0.16519549430E+01
 0.16061112964E+01 0.15976726710E+01 0.15977361243E+01 0.16045332479E+01 0.16165023085E+01
 0.16302803178E+01 0.16444510314E+01 0.16566895715E+01 0.16648599344E+01 0.16678653557E+01
 0.16647950699E+01 0.16564088749E+01 0.16441717570E+01 0.16297974886E+01 0.16157460494E+01
 0.16043794507E+01 0.15978009908E+01 0.15979959359E+01 0.16058249794E+01 0.16235143824E+01
 0.16501501945E+01 0.16867952617E+01 0.17330938368E+01 0.17876183185E+01 0.18494158095E+01
 0.19170758192E+01 0.19877140164E+01 0.20592503901E+01 0.21278610160E+01 0.21901825042E+01
 0.22429610296E+01 0.22831362167E+01 0.23084120949E+01 0.23170095590E+01 0.23083992565E+01
 0.22832767051E+01 0.22430417954E+01 0.21902925479E+01 0.21279843274E+01 0.20594786087E+01
 0.19880756649E+01 0.19171658843E+01 0.18496249168E+01 0.17873789337E+01 0.17333247608E+01
 0.16867716519E+01 0.16501976650E+01 0.16236862287E+01 0.15859757039E+01 0.15844570894E+01
 0.15915978369E+01 0.16059383015E+01 0.16249416103E+01 0.16465834531E+01 0.16667640754E+01
 0.16821189239E+01 0.16905932292E+01 0.16904249433E+01 0.16823267107E+01 0.16670779063E+01
 0.16472056433E+01 0.16256848621E+01 0.16061962022E+01 0.15912639416E+01 0.15840664278E+01
 0.15858230056E+01 0.15979959597E+01 0.16212879139E+01 0.16546690399E+01 0.16986617542E+01
 0.17527572806E+01 0.18150826573E+01 0.18836724206E+01 0.19565659212E+01 0.20317161605E+01
 0.21052950273E+01 0.21740183870E+01 0.22344144447E+01 0.22831362145E+01 0.23174613171E+01
 0.23351661803E+01 0.23351154325E+01 0.23174954893E+01 0.22832302317E+01 0.22345761256E+01
 0.21741578592E+01 0.21054215842E+01 0.20318237596E+01 0.19569375725E+01 0.18836875539E+01
 0.18147614294E+01 0.17528168444E+01 0.16983846068E+01 0.16547928156E+01 0.16210775501E+01
 0.15976874813E+01 0.15833103555E+01 0.15948095963E+01 0.16180799974E+01 0.16497699257E+01
 0.16858891822E+01 0.17206154717E+01 0.17499258498E+01 0.17696957974E+01 0.17765913537E+01
 0.17697777191E+01 0.17497286512E+01 0.17198595929E+01 0.16848857064E+01 0.16494719469E+01
 0.16183710228E+01 0.15954158706E+01 0.15835162032E+01 0.15840664484E+01 0.15978010346E+01
 0.16248893185E+01 0.16635885979E+01 0.17140941266E+01 0.17744418367E+01 0.18423335426E+01
 0.19156892929E+01 0.19925085137E+01 0.20691641646E+01 0.21427098045E+01 0.22093388933E+01
 0.22656259247E+01 0.23084120905E+01 0.23351661782E+01 0.23441963284E+01 0.23351515309E+01
 0.23083951532E+01 0.22657305351E+01 0.22094453232E+01 0.21429104220E+01 0.20694444653E+01
 0.19926603456E+01 0.19157970920E+01 0.18421014314E+01 0.17742863086E+01 0.17139978118E+01
 0.16644276566E+01 0.16246388918E+01 0.15977280289E+01 0.15844538426E+01 0.16168338909E+01
 0.16551611658E+01 0.17057870677E+01 0.17646124701E+01 0.18255073935E+01 0.18817956091E+01
 0.19248790246E+01 0.19479809474E+01 0.19480277621E+01 0.19246973170E+01 0.18824354997E+01
 0.18268662270E+01 0.17652481201E+01 0.17054181876E+01 0.16543978825E+01 0.16165842443E+01
 0.15954158918E+01 0.15912639829E+01 0.16043795140E+01 0.16334479213E+01 0.16760723867E+01
 0.17307437685E+01 0.17954320821E+01 0.18673802190E+01 0.19438336468E+01 0.20216895896E+01
 0.20981115127E+01 0.21692411728E+01 0.22315938509E+01 0.22818098632E+01 0.23170095527E+01
 0.23351154285E+01 0.23351515290E+01 0.23169728655E+01 0.22818166591E+01 0.22315936599E+01
 0.21693353029E+01 0.20981513197E+01 0.20217618434E+01 0.19436399257E+01 0.18672455250E+01
 0.17954328517E+01 0.17307698383E+01 0.16763344958E+01 0.16326906223E+01 0.16045858989E+01