       N       E                     dE             d eps       ncg     rms          rms(c)
DAV:   1    -0.278341589239E+03   -0.27834E+03   -0.99799E+03 41280   0.866E+02
DAV:   2    -0.320642589760E+03   -0.42301E+02   -0.42077E+02 38868   0.240E+02
DAV:   3    -0.321735499972E+03   -0.10929E+01   -0.10920E+01 43916   0.300E+01
DAV:   4    -0.321759954978E+03   -0.24455E-01   -0.24453E-01 42212   0.457E+00
DAV:   5    -0.321760494701E+03   -0.53972E-03   -0.53972E-03 46096   0.460E-01    0.945E+01
RMM:   6    -0.748890016676E+02    0.24687E+03   -0.64562E+01 39262   0.734E+01    0.433E+01
RMM:   7    -0.282552577383E+02    0.46634E+02   -0.61006E+01 42312   0.563E+01    0.357E+01
RMM:   8    -0.327923045177E+02   -0.45370E+01   -0.14826E+02 36875   0.997E+01    0.259E+01
RMM:   9    -0.124554945907E+02    0.20337E+02   -0.43821E+00 41022   0.156E+01    0.119E+01
RMM:  10    -0.963667497803E+01    0.28188E+01   -0.42216E+00 43323   0.157E+01    0.669E-01
RMM:  11    -0.964130604214E+01   -0.46311E-02   -0.26369E-02 46714   0.122E+00    0.509E-01
RMM:  12    -0.964712963986E+01   -0.58236E-02   -0.17498E-02 46153   0.962E-01    0.558E-01
RMM:  13    -0.964081023338E+01    0.63194E-02   -0.13983E-02 46314   0.825E-01    0.533E-02
RMM:  14    -0.964077586390E+01    0.34369E-04   -0.19101E-04 48640   0.105E-01    0.808E-02
RMM:  15    -0.964064779091E+01    0.12807E-03   -0.22649E-04 45031   0.114E-01    0.302E-03
RMM:  16    -0.964064839559E+01   -0.60468E-06   -0.71321E-06 39986   0.124E-02
   1 F= -.96406484E+01 E0= -.96406484E+01  d E =-.201469E-19
