 vasp.6.4.1 05Apr23 (build Jan 09 2024 17:27:40) complex                        
  
 executed on             LinuxIFC date 2024.07.12  13:03:45
 running   32 mpi-ranks, on    1 nodes
 distrk:  each k-point on    8 cores,    4 groups
 distr:  one band on NCORE=   4 cores,    2 groups


--------------------------------------------------------------------------------------------------------


 INCAR:
   ALGO = Fast
   EDIFF = 1e-06
   EDIFFG = -0.03
   ENAUG = 1040
   ENCUT = 520
   GGA = Pe
   ICHARG = 0
   ISMEAR = -5
   ISPIN = 2
   ISTART = 1
   ISYM = 0
   KPAR = 4
   KSPACING = 0.22
   LAECHG = True
   LASPH = True
   LCHARG = True
   LMAXMIX = 4
   LORBIT = 11
   LREAL = False
   LVHAR = True
   LWAVE = True
   MAGMOM = 4*-0.0
   NCORE = 4
   NELM = 0
   NSW = 0
   PREC = Accurate
   SIGMA = 0.05

 POTCAR:    PAW_PBE Li_sv 10Sep2004               
 POTCAR:    PAW_PBE Co 02Aug2007                  
 POTCAR:    PAW_PBE O 08Apr2002                   
 POTCAR:    PAW_PBE Li_sv 10Sep2004               
   VRHFIN =Li: 1s2s2p                                                                               
   LEXCH  = PE                                                                                      
   EATOM  =   202.7858 eV,   14.9043 Ry                                                             
                                                                                                    
   TITEL  = PAW_PBE Li_sv 10Sep2004                                                                 
   LULTRA =        F    use ultrasoft PP ?                                                          
   IUNSCR =        0    unscreen: 0-lin 1-nonlin 2-no                                               
   RPACOR =    0.000    partial core radius                                                         
   POMASS =    7.010; ZVAL   =    3.000    mass and valenz                                          
   RCORE  =    1.700    outmost cutoff radius                                                       
   RWIGS  =    2.050; RWIGS  =    1.085    wigner-seitz radius (au A)                               
   ENMAX  =  499.034; ENMIN  =  374.276 eV                                                          
   ICORE  =        2    local potential                                                             
   LCOR   =        T    correct aug charges                                                         
   LPAW   =        T    paw PP                                                                      
   EAUG   =  628.945                                                                                
   RMAX   =    1.732    core radius for proj-oper                                                   
   RAUG   =    1.300    factor for augmentation sphere                                              
   RDEP   =    1.728    radius for radial grids                                                     
   RDEPT  =    1.329    core radius for aug-charge                                                  
                                                                                                    
   Atomic configuration                                                                             
    4 entries                                                                                       
     n  l   j            E        occ.                                                              
     1  0  0.50       -51.8549   2.0000                                                             
     2  0  0.50        -2.8742   1.0000                                                             
     2  1  0.50        -1.3606   0.0000                                                             
     3  2  1.50        -1.3606   0.0000                                                             
   Description                                                                                      
     l       E           TYP  RCUT    TYP  RCUT                                                     
     0    -51.8548813     23  1.400                                                                 
     0     -2.8742052     23  1.700                                                                 
     1     -1.3605826     23  1.400                                                                 
     2     -1.3605826     23  1.400                                                                 
  local pseudopotential read in
  atomic valenz-charges read in
  non local Contribution for L=           0  read in
    real space projection operators read in
  non local Contribution for L=           0  read in
    real space projection operators read in
  non local Contribution for L=           1  read in
    real space projection operators read in
    PAW grid and wavefunctions read in
 
   number of l-projection  operators is LMAX  =           3
   number of lm-projection operators is LMMAX =           5
 
 POTCAR:    PAW_PBE Co 02Aug2007                  
   VRHFIN =Co: d8 s1                                                                                
   LEXCH  = PE                                                                                      
   EATOM  =   813.3670 eV,   59.7808 Ry                                                             
                                                                                                    
   TITEL  = PAW_PBE Co 02Aug2007                                                                    
   LULTRA =        F    use ultrasoft PP ?                                                          
   IUNSCR =        1    unscreen: 0-lin 1-nonlin 2-no                                               
   RPACOR =    2.000    partial core radius                                                         
   POMASS =   58.933; ZVAL   =    9.000    mass and valenz                                          
   RCORE  =    2.300    outmost cutoff radius                                                       
   RWIGS  =    2.460; RWIGS  =    1.302    wigner-seitz radius (au A)                               
   ENMAX  =  267.968; ENMIN  =  200.976 eV                                                          
   RCLOC  =    1.203    cutoff for local pot                                                        
   LCOR   =        T    correct aug charges                                                         
   LPAW   =        T    paw PP                                                                      
   EAUG   =  477.818                                                                                
   DEXC   =    0.000                                                                                
   RMAX   =    2.360    core radius for proj-oper                                                   
   RAUG   =    1.300    factor for augmentation sphere                                              
   RDEP   =    2.393    radius for radial grids                                                     
   RDEPT  =    1.864    core radius for aug-charge                                                  
                                                                                                    
   Atomic configuration                                                                             
    9 entries                                                                                       
     n  l   j            E        occ.                                                              
     1  0  0.50     -7587.6674   2.0000                                                             
     2  0  0.50      -893.6084   2.0000                                                             
     2  1  1.50      -764.5805   6.0000                                                             
     3  0  0.50       -97.5973   2.0000                                                             
     3  1  1.50       -60.9648   6.0000                                                             
     3  2  2.50        -4.2382   8.0000                                                             
     4  0  0.50        -4.3746   1.0000                                                             
     4  1  1.50        -4.0817   0.0000                                                             
     4  3  2.50        -1.3606   0.0000                                                             
   Description                                                                                      
     l       E           TYP  RCUT    TYP  RCUT                                                     
     2     -4.2382362     23  2.300                                                                 
     2     -5.5988188     23  2.300                                                                 
     0     -4.3745797     23  2.300                                                                 
     0      5.7660125     23  2.300                                                                 
     1     -2.7211652     23  2.300                                                                 
     1     16.9860234     23  2.300                                                                 
  local pseudopotential read in
  partial core-charges read in
  partial kinetic energy density read in
  atomic valenz-charges read in
  non local Contribution for L=           2  read in
    real space projection operators read in
  non local Contribution for L=           2  read in
    real space projection operators read in
  non local Contribution for L=           0  read in
    real space projection operators read in
  non local Contribution for L=           0  read in
    real space projection operators read in
  non local Contribution for L=           1  read in
    real space projection operators read in
  non local Contribution for L=           1  read in
    real space projection operators read in
    PAW grid and wavefunctions read in
 
   number of l-projection  operators is LMAX  =           6
   number of lm-projection operators is LMMAX =          18
 
 POTCAR:    PAW_PBE O 08Apr2002                   
   VRHFIN =O: s2p4                                                                                  
   LEXCH  = PE                                                                                      
   EATOM  =   432.3788 eV,   31.7789 Ry                                                             
                                                                                                    
   TITEL  = PAW_PBE O 08Apr2002                                                                     
   LULTRA =        F    use ultrasoft PP ?                                                          
   IUNSCR =        1    unscreen: 0-lin 1-nonlin 2-no                                               
   RPACOR =    1.200    partial core radius                                                         
   POMASS =   16.000; ZVAL   =    6.000    mass and valenz                                          
   RCORE  =    1.520    outmost cutoff radius                                                       
   RWIGS  =    1.550; RWIGS  =    0.820    wigner-seitz radius (au A)                               
   ENMAX  =  400.000; ENMIN  =  300.000 eV                                                          
   ICORE  =        2    local potential                                                             
   LCOR   =        T    correct aug charges                                                         
   LPAW   =        T    paw PP                                                                      
   EAUG   =  605.392                                                                                
   DEXC   =    0.000                                                                                
   RMAX   =    1.553    core radius for proj-oper                                                   
   RAUG   =    1.300    factor for augmentation sphere                                              
   RDEP   =    1.550    radius for radial grids                                                     
   RDEPT  =    1.329    core radius for aug-charge                                                  
                                                                                                    
   Atomic configuration                                                                             
    4 entries                                                                                       
     n  l   j            E        occ.                                                              
     1  0  0.50      -514.6923   2.0000                                                             
     2  0  0.50       -23.9615   2.0000                                                             
     2  1  0.50        -9.0305   4.0000                                                             
     3  2  1.50        -9.5241   0.0000                                                             
   Description                                                                                      
     l       E           TYP  RCUT    TYP  RCUT                                                     
     0    -23.9615318     23  1.200                                                                 
     0     -9.5240782     23  1.200                                                                 
     1     -9.0304911     23  1.520                                                                 
     1      8.1634956     23  1.520                                                                 
     2     -9.5240782      7  1.500                                                                 
  local pseudopotential read in
  partial core-charges read in
  partial kinetic energy density read in
  kinetic energy density of atom read in
  atomic valenz-charges read in
  non local Contribution for L=           0  read in
    real space projection operators read in
  non local Contribution for L=           0  read in
    real space projection operators read in
  non local Contribution for L=           1  read in
    real space projection operators read in
  non local Contribution for L=           1  read in
    real space projection operators read in
    PAW grid and wavefunctions read in
 
   number of l-projection  operators is LMAX  =           4
   number of lm-projection operators is LMMAX =           8
 
  PAW_PBE Li_sv 10Sep2004               :
 energy of atom  1       EATOM= -202.7858
 kinetic energy error for atom=    0.0130 (will be added to EATOM!!)
  PAW_PBE Co 02Aug2007                  :
 energy of atom  2       EATOM= -813.3670
 kinetic energy error for atom=    0.0028 (will be added to EATOM!!)
  PAW_PBE O 08Apr2002                   :
 energy of atom  3       EATOM= -432.3788
 kinetic energy error for atom=    0.0208 (will be added to EATOM!!)
 
 
 POSCAR: Li1 Co1 O2
  positions in direct lattice
  No initial velocities read in
 exchange correlation table for  LEXCH =        8
   RHO(1)=    0.500       N(1)  =     2000
   RHO(2)=  100.500       N(2)  =     4000
 


--------------------------------------------------------------------------------------------------------


 ion  position               nearest neighbor table
   1  1.000  1.000  1.000-   4 2.08   4 2.08   3 2.08   3 2.08   4 2.08   3 2.08   2 2.83   2 2.83
                             2 2.83   2 2.83   2 2.83   2 2.83
   2  0.500  0.500  0.500-   3 1.92   3 1.92   4 1.92   4 1.92   4 1.92   3 1.92   1 2.83   1 2.83
                             1 2.83   1 2.83   1 2.83   1 2.83
   3  0.760  0.760  0.760-   2 1.92   2 1.92   2 1.92   1 2.08   1 2.08   1 2.08
   4  0.240  0.240  0.240-   2 1.92   2 1.92   2 1.92   1 2.08   1 2.08   1 2.08
 

IMPORTANT INFORMATION: All symmetrisations will be switched off!
NOSYMM: (Re-)initialisation of all symmetry stuff for point group C_1.


----------------------------------------------------------------------------------------

                                     Primitive cell                                     

  volume of cell :      31.7940

  direct lattice vectors                    reciprocal lattice vectors
     4.716041636 -1.405565895 -0.002909628     0.105903874 -0.355728600 -0.190035481
     4.716041653  1.405565954 -0.002909605     0.105903870  0.355728602 -0.190035473
     4.298619543  0.000000000  2.395555081     0.000257260 -0.000000003  0.416978156

  length of vectors
     4.921043859  4.921043892  4.921058232     0.416979558  0.416979555  0.416978235

  position of ions in fractional coordinates (direct lattice)
     0.999999812  0.999999805  0.999999908
     0.499999696  0.499999698  0.500000603
     0.760114343  0.760114354  0.760117776
     0.239886149  0.239886143  0.239881713

  ion indices of the primitive-cell ions
   primitive index   ion index
                 1           1
                 2           2
                 3           3
                 4           4

----------------------------------------------------------------------------------------

 
 -----------------------------------------------------------------------------
|                                                                             |
|           W    W    AA    RRRRR   N    N  II  N    N   GGGG   !!!           |
|           W    W   A  A   R    R  NN   N  II  NN   N  G    G  !!!           |
|           W    W  A    A  R    R  N N  N  II  N N  N  G       !!!           |
|           W WW W  AAAAAA  RRRRR   N  N N  II  N  N N  G  GGG   !            |
|           WW  WW  A    A  R   R   N   NN  II  N   NN  G    G                |
|           W    W  A    A  R    R  N    N  II  N    N   GGGG   !!!           |
|                                                                             |
|     The requested file  could not be found or opened for reading            |
|     k-point information. Automatic k-point generation is used as a          |
|     fallback, which may lead to unwanted results.                           |
|                                                                             |
 -----------------------------------------------------------------------------

 

Automatic generation of k-mesh.
 Grid dimensions derived from KSPACING:
 generate k-points for:   12   12   12

 Generating k-lattice:

  Cartesian coordinates                     Fractional coordinates (reciprocal lattice)
     0.008825323 -0.029644050 -0.015836290     0.083333333  0.000000000  0.000000000
     0.008825322  0.029644050 -0.015836289    -0.000000000  0.083333333 -0.000000000
     0.000021438 -0.000000000  0.034748180     0.000000000  0.000000000  0.083333333

  Length of vectors
     0.034748296  0.034748296  0.034748186

  Shift w.r.t. Gamma in fractional coordinates (k-lattice)
     0.000000000  0.000000000  0.000000000

 TETIRR: Found   5184 inequivalent tetrahedra from    10368
 
 Subroutine IBZKPT returns following result:
 ===========================================
 
 Found    868 irreducible k-points:
 
 Following reciprocal coordinates:
            Coordinates               Weight
  0.000000  0.000000  0.000000      1.000000
  0.083333  0.000000  0.000000      2.000000
  0.000000  0.083333 -0.000000      2.000000
 -0.000000 -0.000000  0.083333      2.000000
  0.166667 -0.000000 -0.000000      2.000000
  0.000000  0.166667 -0.000000      2.000000
  0.000000  0.000000  0.166667      2.000000
  0.250000 -0.000000  0.000000      2.000000
  0.000000  0.250000 -0.000000      2.000000
 -0.000000  0.000000  0.250000      2.000000
  0.333333  0.000000 -0.000000      2.000000
 -0.000000  0.333333  0.000000      2.000000
 -0.000000 -0.000000  0.333333      2.000000
  0.416667 -0.000000 -0.000000      2.000000
  0.000000  0.416667 -0.000000      2.000000
 -0.000000 -0.000000  0.416667      2.000000
  0.500000 -0.000000  0.000000      1.000000
  0.000000  0.500000  0.000000      1.000000
 -0.000000  0.000000  0.500000      1.000000
  0.083333  0.083333 -0.000000      2.000000
 -0.083333 -0.000000 -0.083333      2.000000
 -0.000000  0.083333  0.083333      2.000000
  0.166667  0.083333  0.000000      2.000000
 -0.166667 -0.000000 -0.083333      2.000000
 -0.000000  0.166667  0.083333      2.000000
 -0.083333 -0.166667  0.000000      2.000000
  0.083333 -0.000000  0.166667      2.000000
  0.000000 -0.083333 -0.166667      2.000000
  0.250000  0.083333  0.000000      2.000000
 -0.250000 -0.000000 -0.083333      2.000000
 -0.000000  0.250000  0.083333      2.000000
 -0.083333 -0.250000 -0.000000      2.000000
  0.083333 -0.000000  0.250000      2.000000
 -0.000000 -0.083333 -0.250000      2.000000
  0.333333  0.083333  0.000000      2.000000
 -0.333333  0.000000 -0.083333      2.000000
 -0.000000  0.333333  0.083333      2.000000
 -0.083333 -0.333333  0.000000      2.000000
  0.083333 -0.000000  0.333333      2.000000
 -0.000000 -0.083333 -0.333333      2.000000
  0.416667  0.083333  0.000000      2.000000
 -0.416667  0.000000 -0.083333      2.000000
  0.000000  0.416667  0.083333      2.000000
 -0.083333 -0.416667  0.000000      2.000000
  0.083333  0.000000  0.416667      2.000000
  0.000000 -0.083333 -0.416667      2.000000
  0.500000  0.083333 -0.000000      2.000000
  0.500000  0.000000 -0.083333      2.000000
  0.000000  0.500000  0.083333      2.000000
 -0.083333  0.500000  0.000000      2.000000
  0.083333  0.000000  0.500000      2.000000
 -0.000000 -0.083333  0.500000      2.000000
 -0.416667  0.083333 -0.000000      2.000000
  0.416667  0.000000 -0.083333      2.000000
 -0.000000 -0.416667  0.083333      2.000000
 -0.083333  0.416667  0.000000      2.000000
  0.083333 -0.000000 -0.416667      2.000000
 -0.000000 -0.083333  0.416667      2.000000
 -0.333333  0.083333  0.000000      2.000000
  0.333333  0.000000 -0.083333      2.000000
  0.000000 -0.333333  0.083333      2.000000
 -0.083333  0.333333 -0.000000      2.000000
  0.083333 -0.000000 -0.333333      2.000000
  0.000000 -0.083333  0.333333      2.000000
 -0.250000  0.083333 -0.000000      2.000000
  0.250000 -0.000000 -0.083333      2.000000
 -0.000000 -0.250000  0.083333      2.000000
 -0.083333  0.250000 -0.000000      2.000000
  0.083333  0.000000 -0.250000      2.000000
  0.000000 -0.083333  0.250000      2.000000
 -0.166667  0.083333  0.000000      2.000000
  0.166667 -0.000000 -0.083333      2.000000
 -0.000000 -0.166667  0.083333      2.000000
 -0.083333  0.166667  0.000000      2.000000
  0.083333  0.000000 -0.166667      2.000000
 -0.000000 -0.083333  0.166667      2.000000
 -0.083333  0.083333  0.000000      2.000000
  0.083333 -0.000000 -0.083333      2.000000
 -0.000000 -0.083333  0.083333      2.000000
  0.166667  0.166667 -0.000000      2.000000
 -0.166667  0.000000 -0.166667      2.000000
  0.000000  0.166667  0.166667      2.000000
  0.250000  0.166667 -0.000000      2.000000
 -0.250000 -0.000000 -0.166667      2.000000
 -0.000000  0.250000  0.166667      2.000000
 -0.166667 -0.250000  0.000000      2.000000
  0.166667 -0.000000  0.250000      2.000000
 -0.000000 -0.166667 -0.250000      2.000000
  0.333333  0.166667  0.000000      2.000000
 -0.333333  0.000000 -0.166667      2.000000
 -0.000000  0.333333  0.166667      2.000000
 -0.166667 -0.333333  0.000000      2.000000
  0.166667 -0.000000  0.333333      2.000000
 -0.000000 -0.166667 -0.333333      2.000000
  0.416667  0.166667  0.000000      2.000000
 -0.416667  0.000000 -0.166667      2.000000
  0.000000  0.416667  0.166667      2.000000
 -0.166667 -0.416667 -0.000000      2.000000
  0.166667 -0.000000  0.416667      2.000000
 -0.000000 -0.166667 -0.416667      2.000000
  0.500000  0.166667 -0.000000      2.000000
  0.500000  0.000000 -0.166667      2.000000
  0.000000  0.500000  0.166667      2.000000
 -0.166667  0.500000  0.000000      2.000000
  0.166667 -0.000000  0.500000      2.000000
 -0.000000 -0.166667  0.500000      2.000000
 -0.416667  0.166667 -0.000000      2.000000
  0.416667  0.000000 -0.166667      2.000000
 -0.000000 -0.416667  0.166667      2.000000
 -0.166667  0.416667 -0.000000      2.000000
  0.166667 -0.000000 -0.416667      2.000000
 -0.000000 -0.166667  0.416667      2.000000
 -0.333333  0.166667 -0.000000      2.000000
  0.333333 -0.000000 -0.166667      2.000000
 -0.000000 -0.333333  0.166667      2.000000
 -0.166667  0.333333  0.000000      2.000000
  0.166667 -0.000000 -0.333333      2.000000
 -0.000000 -0.166667  0.333333      2.000000
 -0.250000  0.166667 -0.000000      2.000000
  0.250000 -0.000000 -0.166667      2.000000
 -0.000000 -0.250000  0.166667      2.000000
 -0.166667  0.250000 -0.000000      2.000000
  0.166667 -0.000000 -0.250000      2.000000
 -0.000000 -0.166667  0.250000      2.000000
 -0.166667  0.166667  0.000000      2.000000
  0.166667 -0.000000 -0.166667      2.000000
 -0.000000 -0.166667  0.166667      2.000000
  0.250000  0.250000 -0.000000      2.000000
 -0.250000  0.000000 -0.250000      2.000000
  0.000000  0.250000  0.250000      2.000000
  0.333333  0.250000  0.000000      2.000000
 -0.333333  0.000000 -0.250000      2.000000
 -0.000000  0.333333  0.250000      2.000000
 -0.250000 -0.333333 -0.000000      2.000000
  0.250000 -0.000000  0.333333      2.000000
  0.000000 -0.250000 -0.333333      2.000000
  0.416667  0.250000 -0.000000      2.000000
 -0.416667  0.000000 -0.250000      2.000000
  0.000000  0.416667  0.250000      2.000000
 -0.250000 -0.416667  0.000000      2.000000
  0.250000 -0.000000  0.416667      2.000000
 -0.000000 -0.250000 -0.416667      2.000000
  0.500000  0.250000  0.000000      2.000000
  0.500000  0.000000 -0.250000      2.000000
  0.000000  0.500000  0.250000      2.000000
 -0.250000  0.500000  0.000000      2.000000
  0.250000 -0.000000  0.500000      2.000000
 -0.000000 -0.250000  0.500000      2.000000
 -0.416667  0.250000  0.000000      2.000000
  0.416667  0.000000 -0.250000      2.000000
 -0.000000 -0.416667  0.250000      2.000000
 -0.250000  0.416667 -0.000000      2.000000
  0.250000 -0.000000 -0.416667      2.000000
 -0.000000 -0.250000  0.416667      2.000000
 -0.333333  0.250000  0.000000      2.000000
  0.333333  0.000000 -0.250000      2.000000
 -0.000000 -0.333333  0.250000      2.000000
 -0.250000  0.333333 -0.000000      2.000000
  0.250000 -0.000000 -0.333333      2.000000
 -0.000000 -0.250000  0.333333      2.000000
 -0.250000  0.250000 -0.000000      2.000000
  0.250000 -0.000000 -0.250000      2.000000
  0.000000 -0.250000  0.250000      2.000000
  0.333333  0.333333 -0.000000      2.000000
 -0.333333  0.000000 -0.333333      2.000000
 -0.000000  0.333333  0.333333      2.000000
  0.416667  0.333333 -0.000000      2.000000
 -0.416667  0.000000 -0.333333      2.000000
 -0.000000  0.416667  0.333333      2.000000
 -0.333333 -0.416667  0.000000      2.000000
  0.333333  0.000000  0.416667      2.000000
  0.000000 -0.333333 -0.416667      2.000000
  0.500000  0.333333  0.000000      2.000000
  0.500000  0.000000 -0.333333      2.000000
  0.000000  0.500000  0.333333      2.000000
 -0.333333  0.500000 -0.000000      2.000000
  0.333333  0.000000  0.500000      2.000000
  0.000000 -0.333333  0.500000      2.000000
 -0.416667  0.333333 -0.000000      2.000000
  0.416667  0.000000 -0.333333      2.000000
 -0.000000 -0.416667  0.333333      2.000000
 -0.333333  0.416667  0.000000      2.000000
  0.333333  0.000000 -0.416667      2.000000
 -0.000000 -0.333333  0.416667      2.000000
 -0.333333  0.333333 -0.000000      2.000000
  0.333333 -0.000000 -0.333333      2.000000
 -0.000000 -0.333333  0.333333      2.000000
  0.416667  0.416667 -0.000000      2.000000
 -0.416667  0.000000 -0.416667      2.000000
  0.000000  0.416667  0.416667      2.000000
  0.500000  0.416667 -0.000000      2.000000
  0.500000  0.000000 -0.416667      2.000000
 -0.000000  0.500000  0.416667      2.000000
 -0.416667  0.500000  0.000000      2.000000
  0.416667 -0.000000  0.500000      2.000000
  0.000000 -0.416667  0.500000      2.000000
 -0.416667  0.416667  0.000000      2.000000
  0.416667  0.000000 -0.416667      2.000000
 -0.000000 -0.416667  0.416667      2.000000
  0.500000  0.500000 -0.000000      1.000000
  0.500000 -0.000000  0.500000      1.000000
  0.000000  0.500000  0.500000      1.000000
  0.083333  0.083333  0.083333      2.000000
  0.166667  0.083333  0.083333      2.000000
  0.083333  0.166667  0.083333      2.000000
  0.083333  0.083333  0.166667      2.000000
  0.250000  0.083333  0.083333      2.000000
  0.083333  0.250000  0.083333      2.000000
  0.083333  0.083333  0.250000      2.000000
  0.333333  0.083333  0.083333      2.000000
  0.083333  0.333333  0.083333      2.000000
  0.083333  0.083333  0.333333      2.000000
  0.416667  0.083333  0.083333      2.000000
  0.083333  0.416667  0.083333      2.000000
  0.083333  0.083333  0.416667      2.000000
  0.500000  0.083333  0.083333      2.000000
  0.083333  0.500000  0.083333      2.000000
  0.083333  0.083333  0.500000      2.000000
 -0.416667  0.083333  0.083333      2.000000
  0.083333 -0.416667  0.083333      2.000000
  0.083333  0.083333 -0.416667      2.000000
 -0.333333  0.083333  0.083333      2.000000
  0.083333 -0.333333  0.083333      2.000000
  0.083333  0.083333 -0.333333      2.000000
 -0.250000  0.083333  0.083333      2.000000
  0.083333 -0.250000  0.083333      2.000000
  0.083333  0.083333 -0.250000      2.000000
 -0.166667  0.083333  0.083333      2.000000
  0.083333 -0.166667  0.083333      2.000000
  0.083333  0.083333 -0.166667      2.000000
 -0.083333  0.083333  0.083333      2.000000
  0.083333 -0.083333  0.083333      2.000000
  0.083333  0.083333 -0.083333      2.000000
  0.166667  0.166667  0.083333      2.000000
 -0.166667 -0.083333 -0.166667      2.000000
  0.083333  0.166667  0.166667      2.000000
  0.250000  0.166667  0.083333      2.000000
 -0.250000 -0.083333 -0.166667      2.000000
  0.083333  0.250000  0.166667      2.000000
 -0.166667 -0.250000 -0.083333      2.000000
  0.166667  0.083333  0.250000      2.000000
 -0.083333 -0.166667 -0.250000      2.000000
  0.333333  0.166667  0.083333      2.000000
 -0.333333 -0.083333 -0.166667      2.000000
  0.083333  0.333333  0.166667      2.000000
 -0.166667 -0.333333 -0.083333      2.000000
  0.166667  0.083333  0.333333      2.000000
 -0.083333 -0.166667 -0.333333      2.000000
  0.416667  0.166667  0.083333      2.000000
 -0.416667 -0.083333 -0.166667      2.000000
  0.083333  0.416667  0.166667      2.000000
 -0.166667 -0.416667 -0.083333      2.000000
  0.166667  0.083333  0.416667      2.000000
 -0.083333 -0.166667 -0.416667      2.000000
  0.500000  0.166667  0.083333      2.000000
  0.500000 -0.083333 -0.166667      2.000000
  0.083333  0.500000  0.166667      2.000000
 -0.166667  0.500000 -0.083333      2.000000
  0.166667  0.083333  0.500000      2.000000
 -0.083333 -0.166667  0.500000      2.000000
 -0.416667  0.166667  0.083333      2.000000
  0.416667 -0.083333 -0.166667      2.000000
  0.083333 -0.416667  0.166667      2.000000
 -0.166667  0.416667 -0.083333      2.000000
  0.166667  0.083333 -0.416667      2.000000
 -0.083333 -0.166667  0.416667      2.000000
 -0.333333  0.166667  0.083333      2.000000
  0.333333 -0.083333 -0.166667      2.000000
  0.083333 -0.333333  0.166667      2.000000
 -0.166667  0.333333 -0.083333      2.000000
  0.166667  0.083333 -0.333333      2.000000
 -0.083333 -0.166667  0.333333      2.000000
 -0.250000  0.166667  0.083333      2.000000
  0.250000 -0.083333 -0.166667      2.000000
  0.083333 -0.250000  0.166667      2.000000
 -0.166667  0.250000 -0.083333      2.000000
  0.166667  0.083333 -0.250000      2.000000
 -0.083333 -0.166667  0.250000      2.000000
 -0.166667  0.166667  0.083333      2.000000
  0.166667 -0.083333 -0.166667      2.000000
  0.083333 -0.166667  0.166667      2.000000
 -0.166667  0.166667 -0.083333      2.000000
  0.166667  0.083333 -0.166667      2.000000
 -0.083333 -0.166667  0.166667      2.000000
 -0.083333  0.166667  0.083333      2.000000
  0.083333 -0.083333 -0.166667      2.000000
  0.083333 -0.083333  0.166667      2.000000
 -0.166667  0.083333 -0.083333      2.000000
  0.166667  0.083333 -0.083333      2.000000
 -0.083333 -0.166667  0.083333      2.000000
  0.250000  0.250000  0.083333      2.000000
 -0.250000 -0.083333 -0.250000      2.000000
  0.083333  0.250000  0.250000      2.000000
  0.333333  0.250000  0.083333      2.000000
 -0.333333 -0.083333 -0.250000      2.000000
  0.083333  0.333333  0.250000      2.000000
 -0.250000 -0.333333 -0.083333      2.000000
  0.250000  0.083333  0.333333      2.000000
 -0.083333 -0.250000 -0.333333      2.000000
  0.416667  0.250000  0.083333      2.000000
 -0.416667 -0.083333 -0.250000      2.000000
  0.083333  0.416667  0.250000      2.000000
 -0.250000 -0.416667 -0.083333      2.000000
  0.250000  0.083333  0.416667      2.000000
 -0.083333 -0.250000 -0.416667      2.000000
  0.500000  0.250000  0.083333      2.000000
  0.500000 -0.083333 -0.250000      2.000000
  0.083333  0.500000  0.250000      2.000000
 -0.250000  0.500000 -0.083333      2.000000
  0.250000  0.083333  0.500000      2.000000
 -0.083333 -0.250000  0.500000      2.000000
 -0.416667  0.250000  0.083333      2.000000
  0.416667 -0.083333 -0.250000      2.000000
  0.083333 -0.416667  0.250000      2.000000
 -0.250000  0.416667 -0.083333      2.000000
  0.250000  0.083333 -0.416667      2.000000
 -0.083333 -0.250000  0.416667      2.000000
 -0.333333  0.250000  0.083333      2.000000
  0.333333 -0.083333 -0.250000      2.000000
  0.083333 -0.333333  0.250000      2.000000
 -0.250000  0.333333 -0.083333      2.000000
  0.250000  0.083333 -0.333333      2.000000
 -0.083333 -0.250000  0.333333      2.000000
 -0.250000  0.250000  0.083333      2.000000
  0.250000 -0.083333 -0.250000      2.000000
  0.083333 -0.250000  0.250000      2.000000
 -0.250000  0.250000 -0.083333      2.000000
  0.250000  0.083333 -0.250000      2.000000
 -0.083333 -0.250000  0.250000      2.000000
 -0.166667  0.250000  0.083333      2.000000
  0.166667 -0.083333 -0.250000      2.000000
  0.083333 -0.166667  0.250000      2.000000
 -0.250000  0.166667 -0.083333      2.000000
  0.250000  0.083333 -0.166667      2.000000
 -0.083333 -0.250000  0.166667      2.000000
 -0.083333  0.250000  0.083333      2.000000
  0.083333 -0.083333 -0.250000      2.000000
  0.083333 -0.083333  0.250000      2.000000
 -0.250000  0.083333 -0.083333      2.000000
  0.250000  0.083333 -0.083333      2.000000
 -0.083333 -0.250000  0.083333      2.000000
  0.333333  0.333333  0.083333      2.000000
 -0.333333 -0.083333 -0.333333      2.000000
  0.083333  0.333333  0.333333      2.000000
  0.416667  0.333333  0.083333      2.000000
 -0.416667 -0.083333 -0.333333      2.000000
  0.083333  0.416667  0.333333      2.000000
 -0.333333 -0.416667 -0.083333      2.000000
  0.333333  0.083333  0.416667      2.000000
 -0.083333 -0.333333 -0.416667      2.000000
  0.500000  0.333333  0.083333      2.000000
  0.500000 -0.083333 -0.333333      2.000000
  0.083333  0.500000  0.333333      2.000000
 -0.333333  0.500000 -0.083333      2.000000
  0.333333  0.083333  0.500000      2.000000
 -0.083333 -0.333333  0.500000      2.000000
 -0.416667  0.333333  0.083333      2.000000
  0.416667 -0.083333 -0.333333      2.000000
  0.083333 -0.416667  0.333333      2.000000
 -0.333333  0.416667 -0.083333      2.000000
  0.333333  0.083333 -0.416667      2.000000
 -0.083333 -0.333333  0.416667      2.000000
 -0.333333  0.333333  0.083333      2.000000
  0.333333 -0.083333 -0.333333      2.000000
  0.083333 -0.333333  0.333333      2.000000
 -0.333333  0.333333 -0.083333      2.000000
  0.333333  0.083333 -0.333333      2.000000
 -0.083333 -0.333333  0.333333      2.000000
 -0.250000  0.333333  0.083333      2.000000
  0.250000 -0.083333 -0.333333      2.000000
  0.083333 -0.250000  0.333333      2.000000
 -0.333333  0.250000 -0.083333      2.000000
  0.333333  0.083333 -0.250000      2.000000
 -0.083333 -0.333333  0.250000      2.000000
 -0.166667  0.333333  0.083333      2.000000
  0.166667 -0.083333 -0.333333      2.000000
  0.083333 -0.166667  0.333333      2.000000
 -0.333333  0.166667 -0.083333      2.000000
  0.333333  0.083333 -0.166667      2.000000
 -0.083333 -0.333333  0.166667      2.000000
 -0.083333  0.333333  0.083333      2.000000
  0.083333 -0.083333 -0.333333      2.000000
  0.083333 -0.083333  0.333333      2.000000
 -0.333333  0.083333 -0.083333      2.000000
  0.333333  0.083333 -0.083333      2.000000
 -0.083333 -0.333333  0.083333      2.000000
  0.416667  0.416667  0.083333      2.000000
 -0.416667 -0.083333 -0.416667      2.000000
  0.083333  0.416667  0.416667      2.000000
  0.500000  0.416667  0.083333      2.000000
  0.500000 -0.083333 -0.416667      2.000000
  0.083333  0.500000  0.416667      2.000000
 -0.416667  0.500000 -0.083333      2.000000
  0.416667  0.083333  0.500000      2.000000
 -0.083333 -0.416667  0.500000      2.000000
 -0.416667  0.416667  0.083333      2.000000
  0.416667 -0.083333 -0.416667      2.000000
  0.083333 -0.416667  0.416667      2.000000
 -0.416667  0.416667 -0.083333      2.000000
  0.416667  0.083333 -0.416667      2.000000
 -0.083333 -0.416667  0.416667      2.000000
 -0.333333  0.416667  0.083333      2.000000
  0.333333 -0.083333 -0.416667      2.000000
  0.083333 -0.333333  0.416667      2.000000
 -0.416667  0.333333 -0.083333      2.000000
  0.416667  0.083333 -0.333333      2.000000
 -0.083333 -0.416667  0.333333      2.000000
 -0.250000  0.416667  0.083333      2.000000
  0.250000 -0.083333 -0.416667      2.000000
  0.083333 -0.250000  0.416667      2.000000
 -0.416667  0.250000 -0.083333      2.000000
  0.416667  0.083333 -0.250000      2.000000
 -0.083333 -0.416667  0.250000      2.000000
 -0.166667  0.416667  0.083333      2.000000
  0.166667 -0.083333 -0.416667      2.000000
  0.083333 -0.166667  0.416667      2.000000
 -0.416667  0.166667 -0.083333      2.000000
  0.416667  0.083333 -0.166667      2.000000
 -0.083333 -0.416667  0.166667      2.000000
 -0.083333  0.416667  0.083333      2.000000
  0.083333 -0.083333 -0.416667      2.000000
  0.083333 -0.083333  0.416667      2.000000
 -0.416667  0.083333 -0.083333      2.000000
  0.416667  0.083333 -0.083333      2.000000
 -0.083333 -0.416667  0.083333      2.000000
  0.500000  0.500000  0.083333      2.000000
  0.500000 -0.083333  0.500000      2.000000
  0.083333  0.500000  0.500000      2.000000
 -0.416667  0.500000  0.083333      2.000000
  0.416667 -0.083333  0.500000      2.000000
  0.083333 -0.416667  0.500000      2.000000
  0.500000  0.416667 -0.083333      2.000000
  0.500000  0.083333 -0.416667      2.000000
 -0.083333  0.500000  0.416667      2.000000
 -0.333333  0.500000  0.083333      2.000000
  0.333333 -0.083333  0.500000      2.000000
  0.083333 -0.333333  0.500000      2.000000
  0.500000  0.333333 -0.083333      2.000000
  0.500000  0.083333 -0.333333      2.000000
 -0.083333  0.500000  0.333333      2.000000
 -0.250000  0.500000  0.083333      2.000000
  0.250000 -0.083333  0.500000      2.000000
  0.083333 -0.250000  0.500000      2.000000
  0.500000  0.250000 -0.083333      2.000000
  0.500000  0.083333 -0.250000      2.000000
 -0.083333  0.500000  0.250000      2.000000
 -0.166667  0.500000  0.083333      2.000000
  0.166667 -0.083333  0.500000      2.000000
  0.083333 -0.166667  0.500000      2.000000
  0.500000  0.166667 -0.083333      2.000000
  0.500000  0.083333 -0.166667      2.000000
 -0.083333  0.500000  0.166667      2.000000
 -0.083333  0.500000  0.083333      2.000000
  0.083333 -0.083333  0.500000      2.000000
  0.500000  0.083333 -0.083333      2.000000
 -0.416667 -0.416667  0.083333      2.000000
  0.416667 -0.083333  0.416667      2.000000
  0.083333 -0.416667 -0.416667      2.000000
 -0.333333 -0.416667  0.083333      2.000000
  0.333333 -0.083333  0.416667      2.000000
  0.083333 -0.333333 -0.416667      2.000000
  0.416667  0.333333 -0.083333      2.000000
 -0.416667  0.083333 -0.333333      2.000000
 -0.083333  0.416667  0.333333      2.000000
 -0.250000 -0.416667  0.083333      2.000000
  0.250000 -0.083333  0.416667      2.000000
  0.083333 -0.250000 -0.416667      2.000000
  0.416667  0.250000 -0.083333      2.000000
 -0.416667  0.083333 -0.250000      2.000000
 -0.083333  0.416667  0.250000      2.000000
 -0.166667 -0.416667  0.083333      2.000000
  0.166667 -0.083333  0.416667      2.000000
  0.083333 -0.166667 -0.416667      2.000000
  0.416667  0.166667 -0.083333      2.000000
 -0.416667  0.083333 -0.166667      2.000000
 -0.083333  0.416667  0.166667      2.000000
 -0.333333 -0.333333  0.083333      2.000000
  0.333333 -0.083333  0.333333      2.000000
  0.083333 -0.333333 -0.333333      2.000000
 -0.250000 -0.333333  0.083333      2.000000
  0.250000 -0.083333  0.333333      2.000000
  0.083333 -0.250000 -0.333333      2.000000
  0.333333  0.250000 -0.083333      2.000000
 -0.333333  0.083333 -0.250000      2.000000
 -0.083333  0.333333  0.250000      2.000000
 -0.166667 -0.333333  0.083333      2.000000
  0.166667 -0.083333  0.333333      2.000000
  0.083333 -0.166667 -0.333333      2.000000
  0.333333  0.166667 -0.083333      2.000000
 -0.333333  0.083333 -0.166667      2.000000
 -0.083333  0.333333  0.166667      2.000000
 -0.250000 -0.250000  0.083333      2.000000
  0.250000 -0.083333  0.250000      2.000000
  0.083333 -0.250000 -0.250000      2.000000
 -0.166667 -0.250000  0.083333      2.000000
  0.166667 -0.083333  0.250000      2.000000
  0.083333 -0.166667 -0.250000      2.000000
  0.250000  0.166667 -0.083333      2.000000
 -0.250000  0.083333 -0.166667      2.000000
 -0.083333  0.250000  0.166667      2.000000
 -0.166667 -0.166667  0.083333      2.000000
  0.166667 -0.083333  0.166667      2.000000
  0.083333 -0.166667 -0.166667      2.000000
  0.166667  0.166667  0.166667      2.000000
  0.250000  0.166667  0.166667      2.000000
  0.166667  0.250000  0.166667      2.000000
  0.166667  0.166667  0.250000      2.000000
  0.333333  0.166667  0.166667      2.000000
  0.166667  0.333333  0.166667      2.000000
  0.166667  0.166667  0.333333      2.000000
  0.416667  0.166667  0.166667      2.000000
  0.166667  0.416667  0.166667      2.000000
  0.166667  0.166667  0.416667      2.000000
  0.500000  0.166667  0.166667      2.000000
  0.166667  0.500000  0.166667      2.000000
  0.166667  0.166667  0.500000      2.000000
 -0.416667  0.166667  0.166667      2.000000
  0.166667 -0.416667  0.166667      2.000000
  0.166667  0.166667 -0.416667      2.000000
 -0.333333  0.166667  0.166667      2.000000
  0.166667 -0.333333  0.166667      2.000000
  0.166667  0.166667 -0.333333      2.000000
 -0.250000  0.166667  0.166667      2.000000
  0.166667 -0.250000  0.166667      2.000000
  0.166667  0.166667 -0.250000      2.000000
 -0.166667  0.166667  0.166667      2.000000
  0.166667 -0.166667  0.166667      2.000000
  0.166667  0.166667 -0.166667      2.000000
  0.250000  0.250000  0.166667      2.000000
 -0.250000 -0.166667 -0.250000      2.000000
  0.166667  0.250000  0.250000      2.000000
  0.333333  0.250000  0.166667      2.000000
 -0.333333 -0.166667 -0.250000      2.000000
  0.166667  0.333333  0.250000      2.000000
 -0.250000 -0.333333 -0.166667      2.000000
  0.250000  0.166667  0.333333      2.000000
 -0.166667 -0.250000 -0.333333      2.000000
  0.416667  0.250000  0.166667      2.000000
 -0.416667 -0.166667 -0.250000      2.000000
  0.166667  0.416667  0.250000      2.000000
 -0.250000 -0.416667 -0.166667      2.000000
  0.250000  0.166667  0.416667      2.000000
 -0.166667 -0.250000 -0.416667      2.000000
  0.500000  0.250000  0.166667      2.000000
  0.500000 -0.166667 -0.250000      2.000000
  0.166667  0.500000  0.250000      2.000000
 -0.250000  0.500000 -0.166667      2.000000
  0.250000  0.166667  0.500000      2.000000
 -0.166667 -0.250000  0.500000      2.000000
 -0.416667  0.250000  0.166667      2.000000
  0.416667 -0.166667 -0.250000      2.000000
  0.166667 -0.416667  0.250000      2.000000
 -0.250000  0.416667 -0.166667      2.000000
  0.250000  0.166667 -0.416667      2.000000
 -0.166667 -0.250000  0.416667      2.000000
 -0.333333  0.250000  0.166667      2.000000
  0.333333 -0.166667 -0.250000      2.000000
  0.166667 -0.333333  0.250000      2.000000
 -0.250000  0.333333 -0.166667      2.000000
  0.250000  0.166667 -0.333333      2.000000
 -0.166667 -0.250000  0.333333      2.000000
 -0.250000  0.250000  0.166667      2.000000
  0.250000 -0.166667 -0.250000      2.000000
  0.166667 -0.250000  0.250000      2.000000
 -0.250000  0.250000 -0.166667      2.000000
  0.250000  0.166667 -0.250000      2.000000
 -0.166667 -0.250000  0.250000      2.000000
 -0.166667  0.250000  0.166667      2.000000
  0.166667 -0.166667 -0.250000      2.000000
  0.166667 -0.166667  0.250000      2.000000
 -0.250000  0.166667 -0.166667      2.000000
  0.250000  0.166667 -0.166667      2.000000
 -0.166667 -0.250000  0.166667      2.000000
  0.333333  0.333333  0.166667      2.000000
 -0.333333 -0.166667 -0.333333      2.000000
  0.166667  0.333333  0.333333      2.000000
  0.416667  0.333333  0.166667      2.000000
 -0.416667 -0.166667 -0.333333      2.000000
  0.166667  0.416667  0.333333      2.000000
 -0.333333 -0.416667 -0.166667      2.000000
  0.333333  0.166667  0.416667      2.000000
 -0.166667 -0.333333 -0.416667      2.000000
  0.500000  0.333333  0.166667      2.000000
  0.500000 -0.166667 -0.333333      2.000000
  0.166667  0.500000  0.333333      2.000000
 -0.333333  0.500000 -0.166667      2.000000
  0.333333  0.166667  0.500000      2.000000
 -0.166667 -0.333333  0.500000      2.000000
 -0.416667  0.333333  0.166667      2.000000
  0.416667 -0.166667 -0.333333      2.000000
  0.166667 -0.416667  0.333333      2.000000
 -0.333333  0.416667 -0.166667      2.000000
  0.333333  0.166667 -0.416667      2.000000
 -0.166667 -0.333333  0.416667      2.000000
 -0.333333  0.333333  0.166667      2.000000
  0.333333 -0.166667 -0.333333      2.000000
  0.166667 -0.333333  0.333333      2.000000
 -0.333333  0.333333 -0.166667      2.000000
  0.333333  0.166667 -0.333333      2.000000
 -0.166667 -0.333333  0.333333      2.000000
 -0.250000  0.333333  0.166667      2.000000
  0.250000 -0.166667 -0.333333      2.000000
  0.166667 -0.250000  0.333333      2.000000
 -0.333333  0.250000 -0.166667      2.000000
  0.333333  0.166667 -0.250000      2.000000
 -0.166667 -0.333333  0.250000      2.000000
 -0.166667  0.333333  0.166667      2.000000
  0.166667 -0.166667 -0.333333      2.000000
  0.166667 -0.166667  0.333333      2.000000
 -0.333333  0.166667 -0.166667      2.000000
  0.333333  0.166667 -0.166667      2.000000
 -0.166667 -0.333333  0.166667      2.000000
  0.416667  0.416667  0.166667      2.000000
 -0.416667 -0.166667 -0.416667      2.000000
  0.166667  0.416667  0.416667      2.000000
  0.500000  0.416667  0.166667      2.000000
  0.500000 -0.166667 -0.416667      2.000000
  0.166667  0.500000  0.416667      2.000000
 -0.416667  0.500000 -0.166667      2.000000
  0.416667  0.166667  0.500000      2.000000
 -0.166667 -0.416667  0.500000      2.000000
 -0.416667  0.416667  0.166667      2.000000
  0.416667 -0.166667 -0.416667      2.000000
  0.166667 -0.416667  0.416667      2.000000
 -0.416667  0.416667 -0.166667      2.000000
  0.416667  0.166667 -0.416667      2.000000
 -0.166667 -0.416667  0.416667      2.000000
 -0.333333  0.416667  0.166667      2.000000
  0.333333 -0.166667 -0.416667      2.000000
  0.166667 -0.333333  0.416667      2.000000
 -0.416667  0.333333 -0.166667      2.000000
  0.416667  0.166667 -0.333333      2.000000
 -0.166667 -0.416667  0.333333      2.000000
 -0.250000  0.416667  0.166667      2.000000
  0.250000 -0.166667 -0.416667      2.000000
  0.166667 -0.250000  0.416667      2.000000
 -0.416667  0.250000 -0.166667      2.000000
  0.416667  0.166667 -0.250000      2.000000
 -0.166667 -0.416667  0.250000      2.000000
 -0.166667  0.416667  0.166667      2.000000
  0.166667 -0.166667 -0.416667      2.000000
  0.166667 -0.166667  0.416667      2.000000
 -0.416667  0.166667 -0.166667      2.000000
  0.416667  0.166667 -0.166667      2.000000
 -0.166667 -0.416667  0.166667      2.000000
  0.500000  0.500000  0.166667      2.000000
  0.500000 -0.166667  0.500000      2.000000
  0.166667  0.500000  0.500000      2.000000
 -0.416667  0.500000  0.166667      2.000000
  0.416667 -0.166667  0.500000      2.000000
  0.166667 -0.416667  0.500000      2.000000
  0.500000  0.416667 -0.166667      2.000000
  0.500000  0.166667 -0.416667      2.000000
 -0.166667  0.500000  0.416667      2.000000
 -0.333333  0.500000  0.166667      2.000000
  0.333333 -0.166667  0.500000      2.000000
  0.166667 -0.333333  0.500000      2.000000
  0.500000  0.333333 -0.166667      2.000000
  0.500000  0.166667 -0.333333      2.000000
 -0.166667  0.500000  0.333333      2.000000
 -0.250000  0.500000  0.166667      2.000000
  0.250000 -0.166667  0.500000      2.000000
  0.166667 -0.250000  0.500000      2.000000
  0.500000  0.250000 -0.166667      2.000000
  0.500000  0.166667 -0.250000      2.000000
 -0.166667  0.500000  0.250000      2.000000
 -0.166667  0.500000  0.166667      2.000000
  0.166667 -0.166667  0.500000      2.000000
  0.500000  0.166667 -0.166667      2.000000
 -0.416667 -0.416667  0.166667      2.000000
  0.416667 -0.166667  0.416667      2.000000
  0.166667 -0.416667 -0.416667      2.000000
 -0.333333 -0.416667  0.166667      2.000000
  0.333333 -0.166667  0.416667      2.000000
  0.166667 -0.333333 -0.416667      2.000000
  0.416667  0.333333 -0.166667      2.000000
 -0.416667  0.166667 -0.333333      2.000000
 -0.166667  0.416667  0.333333      2.000000
 -0.250000 -0.416667  0.166667      2.000000
  0.250000 -0.166667  0.416667      2.000000
  0.166667 -0.250000 -0.416667      2.000000
  0.416667  0.250000 -0.166667      2.000000
 -0.416667  0.166667 -0.250000      2.000000
 -0.166667  0.416667  0.250000      2.000000
 -0.333333 -0.333333  0.166667      2.000000
  0.333333 -0.166667  0.333333      2.000000
  0.166667 -0.333333 -0.333333      2.000000
 -0.250000 -0.333333  0.166667      2.000000
  0.250000 -0.166667  0.333333      2.000000
  0.166667 -0.250000 -0.333333      2.000000
  0.333333  0.250000 -0.166667      2.000000
 -0.333333  0.166667 -0.250000      2.000000
 -0.166667  0.333333  0.250000      2.000000
 -0.250000 -0.250000  0.166667      2.000000
  0.250000 -0.166667  0.250000      2.000000
  0.166667 -0.250000 -0.250000      2.000000
  0.250000  0.250000  0.250000      2.000000
  0.333333  0.250000  0.250000      2.000000
  0.250000  0.333333  0.250000      2.000000
  0.250000  0.250000  0.333333      2.000000
  0.416667  0.250000  0.250000      2.000000
  0.250000  0.416667  0.250000      2.000000
  0.250000  0.250000  0.416667      2.000000
  0.500000  0.250000  0.250000      2.000000
  0.250000  0.500000  0.250000      2.000000
  0.250000  0.250000  0.500000      2.000000
 -0.416667  0.250000  0.250000      2.000000
  0.250000 -0.416667  0.250000      2.000000
  0.250000  0.250000 -0.416667      2.000000
 -0.333333  0.250000  0.250000      2.000000
  0.250000 -0.333333  0.250000      2.000000
  0.250000  0.250000 -0.333333      2.000000
 -0.250000  0.250000  0.250000      2.000000
  0.250000 -0.250000  0.250000      2.000000
  0.250000  0.250000 -0.250000      2.000000
  0.333333  0.333333  0.250000      2.000000
 -0.333333 -0.250000 -0.333333      2.000000
  0.250000  0.333333  0.333333      2.000000
  0.416667  0.333333  0.250000      2.000000
 -0.416667 -0.250000 -0.333333      2.000000
  0.250000  0.416667  0.333333      2.000000
 -0.333333 -0.416667 -0.250000      2.000000
  0.333333  0.250000  0.416667      2.000000
 -0.250000 -0.333333 -0.416667      2.000000
  0.500000  0.333333  0.250000      2.000000
  0.500000 -0.250000 -0.333333      2.000000
  0.250000  0.500000  0.333333      2.000000
 -0.333333  0.500000 -0.250000      2.000000
  0.333333  0.250000  0.500000      2.000000
 -0.250000 -0.333333  0.500000      2.000000
 -0.416667  0.333333  0.250000      2.000000
  0.416667 -0.250000 -0.333333      2.000000
  0.250000 -0.416667  0.333333      2.000000
 -0.333333  0.416667 -0.250000      2.000000
  0.333333  0.250000 -0.416667      2.000000
 -0.250000 -0.333333  0.416667      2.000000
 -0.333333  0.333333  0.250000      2.000000
  0.333333 -0.250000 -0.333333      2.000000
  0.250000 -0.333333  0.333333      2.000000
 -0.333333  0.333333 -0.250000      2.000000
  0.333333  0.250000 -0.333333      2.000000
 -0.250000 -0.333333  0.333333      2.000000
 -0.250000  0.333333  0.250000      2.000000
  0.250000 -0.250000 -0.333333      2.000000
  0.250000 -0.250000  0.333333      2.000000
 -0.333333  0.250000 -0.250000      2.000000
  0.333333  0.250000 -0.250000      2.000000
 -0.250000 -0.333333  0.250000      2.000000
  0.416667  0.416667  0.250000      2.000000
 -0.416667 -0.250000 -0.416667      2.000000
  0.250000  0.416667  0.416667      2.000000
  0.500000  0.416667  0.250000      2.000000
  0.500000 -0.250000 -0.416667      2.000000
  0.250000  0.500000  0.416667      2.000000
 -0.416667  0.500000 -0.250000      2.000000
  0.416667  0.250000  0.500000      2.000000
 -0.250000 -0.416667  0.500000      2.000000
 -0.416667  0.416667  0.250000      2.000000
  0.416667 -0.250000 -0.416667      2.000000
  0.250000 -0.416667  0.416667      2.000000
 -0.416667  0.416667 -0.250000      2.000000
  0.416667  0.250000 -0.416667      2.000000
 -0.250000 -0.416667  0.416667      2.000000
 -0.333333  0.416667  0.250000      2.000000
  0.333333 -0.250000 -0.416667      2.000000
  0.250000 -0.333333  0.416667      2.000000
 -0.416667  0.333333 -0.250000      2.000000
  0.416667  0.250000 -0.333333      2.000000
 -0.250000 -0.416667  0.333333      2.000000
 -0.250000  0.416667  0.250000      2.000000
  0.250000 -0.250000 -0.416667      2.000000
  0.250000 -0.250000  0.416667      2.000000
 -0.416667  0.250000 -0.250000      2.000000
  0.416667  0.250000 -0.250000      2.000000
 -0.250000 -0.416667  0.250000      2.000000
  0.500000  0.500000  0.250000      2.000000
  0.500000 -0.250000  0.500000      2.000000
  0.250000  0.500000  0.500000      2.000000
 -0.416667  0.500000  0.250000      2.000000
  0.416667 -0.250000  0.500000      2.000000
  0.250000 -0.416667  0.500000      2.000000
  0.500000  0.416667 -0.250000      2.000000
  0.500000  0.250000 -0.416667      2.000000
 -0.250000  0.500000  0.416667      2.000000
 -0.333333  0.500000  0.250000      2.000000
  0.333333 -0.250000  0.500000      2.000000
  0.250000 -0.333333  0.500000      2.000000
  0.500000  0.333333 -0.250000      2.000000
  0.500000  0.250000 -0.333333      2.000000
 -0.250000  0.500000  0.333333      2.000000
 -0.250000  0.500000  0.250000      2.000000
  0.250000 -0.250000  0.500000      2.000000
  0.500000  0.250000 -0.250000      2.000000
 -0.416667 -0.416667  0.250000      2.000000
  0.416667 -0.250000  0.416667      2.000000
  0.250000 -0.416667 -0.416667      2.000000
 -0.333333 -0.416667  0.250000      2.000000
  0.333333 -0.250000  0.416667      2.000000
  0.250000 -0.333333 -0.416667      2.000000
  0.416667  0.333333 -0.250000      2.000000
 -0.416667  0.250000 -0.333333      2.000000
 -0.250000  0.416667  0.333333      2.000000
 -0.333333 -0.333333  0.250000      2.000000
  0.333333 -0.250000  0.333333      2.000000
  0.250000 -0.333333 -0.333333      2.000000
  0.333333  0.333333  0.333333      2.000000
  0.416667  0.333333  0.333333      2.000000
  0.333333  0.416667  0.333333      2.000000
  0.333333  0.333333  0.416667      2.000000
  0.500000  0.333333  0.333333      2.000000
  0.333333  0.500000  0.333333      2.000000
  0.333333  0.333333  0.500000      2.000000
 -0.416667  0.333333  0.333333      2.000000
  0.333333 -0.416667  0.333333      2.000000
  0.333333  0.333333 -0.416667      2.000000
 -0.333333  0.333333  0.333333      2.000000
  0.333333 -0.333333  0.333333      2.000000
  0.333333  0.333333 -0.333333      2.000000
  0.416667  0.416667  0.333333      2.000000
 -0.416667 -0.333333 -0.416667      2.000000
  0.333333  0.416667  0.416667      2.000000
  0.500000  0.416667  0.333333      2.000000
  0.500000 -0.333333 -0.416667      2.000000
  0.333333  0.500000  0.416667      2.000000
 -0.416667  0.500000 -0.333333      2.000000
  0.416667  0.333333  0.500000      2.000000
 -0.333333 -0.416667  0.500000      2.000000
 -0.416667  0.416667  0.333333      2.000000
  0.416667 -0.333333 -0.416667      2.000000
  0.333333 -0.416667  0.416667      2.000000
 -0.416667  0.416667 -0.333333      2.000000
  0.416667  0.333333 -0.416667      2.000000
 -0.333333 -0.416667  0.416667      2.000000
 -0.333333  0.416667  0.333333      2.000000
  0.333333 -0.333333 -0.416667      2.000000
  0.333333 -0.333333  0.416667      2.000000
 -0.416667  0.333333 -0.333333      2.000000
  0.416667  0.333333 -0.333333      2.000000
 -0.333333 -0.416667  0.333333      2.000000
  0.500000  0.500000  0.333333      2.000000
  0.500000 -0.333333  0.500000      2.000000
  0.333333  0.500000  0.500000      2.000000
 -0.416667  0.500000  0.333333      2.000000
  0.416667 -0.333333  0.500000      2.000000
  0.333333 -0.416667  0.500000      2.000000
  0.500000  0.416667 -0.333333      2.000000
  0.500000  0.333333 -0.416667      2.000000
 -0.333333  0.500000  0.416667      2.000000
 -0.333333  0.500000  0.333333      2.000000
  0.333333 -0.333333  0.500000      2.000000
  0.500000  0.333333 -0.333333      2.000000
 -0.416667 -0.416667  0.333333      2.000000
  0.416667 -0.333333  0.416667      2.000000
  0.333333 -0.416667 -0.416667      2.000000
  0.416667  0.416667  0.416667      2.000000
  0.500000  0.416667  0.416667      2.000000
  0.416667  0.500000  0.416667      2.000000
  0.416667  0.416667  0.500000      2.000000
 -0.416667  0.416667  0.416667      2.000000
  0.416667 -0.416667  0.416667      2.000000
  0.416667  0.416667 -0.416667      2.000000
  0.500000  0.500000  0.416667      2.000000
  0.500000 -0.416667  0.500000      2.000000
  0.416667  0.500000  0.500000      2.000000
 -0.416667  0.500000  0.416667      2.000000
  0.416667 -0.416667  0.500000      2.000000
  0.500000  0.416667 -0.416667      2.000000
  0.500000  0.500000  0.500000      1.000000
 
 Following cartesian coordinates:
            Coordinates               Weight
  0.000000  0.000000  0.000000      1.000000
  0.008825 -0.029644 -0.015836      2.000000
  0.008825  0.029644 -0.015836      2.000000
  0.000021 -0.000000  0.034748      2.000000
  0.017651 -0.059288 -0.031673      2.000000
  0.017651  0.059288 -0.031673      2.000000
  0.000043 -0.000000  0.069496      2.000000
  0.026476 -0.088932 -0.047509      2.000000
  0.026476  0.088932 -0.047509      2.000000
  0.000064 -0.000000  0.104245      2.000000
  0.035301 -0.118576 -0.063345      2.000000
  0.035301  0.118576 -0.063345      2.000000
  0.000086 -0.000000  0.138993      2.000000
  0.044127 -0.148220 -0.079181      2.000000
  0.044127  0.148220 -0.079181      2.000000
  0.000107 -0.000000  0.173741      2.000000
  0.052952 -0.177864 -0.095018      1.000000
  0.052952  0.177864 -0.095018      1.000000
  0.000129 -0.000000  0.208489      1.000000
  0.017651  0.000000 -0.031673      2.000000
 -0.008847  0.029644 -0.018912      2.000000
  0.008847  0.029644  0.018912      2.000000
  0.026476 -0.029644 -0.047509      2.000000
 -0.017672  0.059288 -0.003076      2.000000
  0.017672  0.059288  0.003076      2.000000
 -0.026476 -0.029644  0.047509      2.000000
  0.008868 -0.029644  0.053660      2.000000
 -0.008868 -0.029644 -0.053660      2.000000
  0.035301 -0.059288 -0.063345      2.000000
 -0.026497  0.088932  0.012761      2.000000
  0.026497  0.088932 -0.012761      2.000000
 -0.035301 -0.059288  0.063345      2.000000
  0.008890 -0.029644  0.088408      2.000000
 -0.008890 -0.029644 -0.088408      2.000000
  0.044127 -0.088932 -0.079181      2.000000
 -0.035323  0.118576  0.028597      2.000000
  0.035323  0.118576 -0.028597      2.000000
 -0.044127 -0.088932  0.079181      2.000000
  0.008911 -0.029644  0.123156      2.000000
 -0.008911 -0.029644 -0.123156      2.000000
  0.052952 -0.118576 -0.095018      2.000000
 -0.044148  0.148220  0.044433      2.000000
  0.044148  0.148220 -0.044433      2.000000
 -0.052952 -0.118576  0.095018      2.000000
  0.008933 -0.029644  0.157905      2.000000
 -0.008933 -0.029644 -0.157905      2.000000
  0.061777 -0.148220 -0.110854      2.000000
  0.052930 -0.177864 -0.129766      2.000000
  0.052973  0.177864 -0.060270      2.000000
  0.044127  0.207508 -0.079181      2.000000
  0.008954 -0.029644  0.192653      2.000000
 -0.008697 -0.029644  0.224325      2.000000
 -0.035301  0.177864  0.063345      2.000000
  0.044105 -0.148220 -0.113930      2.000000
 -0.044105 -0.148220  0.113930      2.000000
  0.035301  0.177864 -0.063345      2.000000
  0.008718 -0.029644 -0.189577      2.000000
 -0.008718 -0.029644  0.189577      2.000000
 -0.026476  0.148220  0.047509      2.000000
  0.035280 -0.118576 -0.098093      2.000000
 -0.035280 -0.118576  0.098093      2.000000
  0.026476  0.148220 -0.047509      2.000000
  0.008740 -0.029644 -0.154829      2.000000
 -0.008740 -0.029644  0.154829      2.000000
 -0.017651  0.118576  0.031673      2.000000
  0.026455 -0.088932 -0.082257      2.000000
 -0.026455 -0.088932  0.082257      2.000000
  0.017651  0.118576 -0.031673      2.000000
  0.008761 -0.029644 -0.120081      2.000000
 -0.008761 -0.029644  0.120081      2.000000
 -0.008825  0.088932  0.015836      2.000000
  0.017629 -0.059288 -0.066421      2.000000
 -0.017629 -0.059288  0.066421      2.000000
  0.008825  0.088932 -0.015836      2.000000
  0.008782 -0.029644 -0.085333      2.000000
 -0.008782 -0.029644  0.085333      2.000000
 -0.000000  0.059288  0.000000      2.000000
  0.008804 -0.029644 -0.050584      2.000000
 -0.008804 -0.029644  0.050584      2.000000
  0.035301  0.000000 -0.063345      2.000000
 -0.017694  0.059288 -0.037824      2.000000
  0.017694  0.059288  0.037824      2.000000
  0.044127 -0.029644 -0.079181      2.000000
 -0.026519  0.088932 -0.021987      2.000000
  0.026519  0.088932  0.021987      2.000000
 -0.044127 -0.029644  0.079181      2.000000
  0.017715 -0.059288  0.072572      2.000000
 -0.017715 -0.059288 -0.072572      2.000000
  0.052952 -0.059288 -0.095018      2.000000
 -0.035344  0.118576 -0.006151      2.000000
  0.035344  0.118576  0.006151      2.000000
 -0.052952 -0.059288  0.095018      2.000000
  0.017736 -0.059288  0.107320      2.000000
 -0.017736 -0.059288 -0.107320      2.000000
  0.061777 -0.088932 -0.110854      2.000000
 -0.044169  0.148220  0.009685      2.000000
  0.044169  0.148220 -0.009685      2.000000
 -0.061777 -0.088932  0.110854      2.000000
  0.017758 -0.059288  0.142068      2.000000
 -0.017758 -0.059288 -0.142068      2.000000
  0.070603 -0.118576 -0.126690      2.000000
  0.052909 -0.177864 -0.164514      2.000000
  0.052995  0.177864 -0.025521      2.000000
  0.035301  0.237152 -0.063345      2.000000
  0.017779 -0.059288  0.176816      2.000000
 -0.017522 -0.059288  0.240162      2.000000
 -0.026476  0.207508  0.047509      2.000000
  0.044084 -0.148220 -0.148678      2.000000
 -0.044084 -0.148220  0.148678      2.000000
  0.026476  0.207508 -0.047509      2.000000
  0.017543 -0.059288 -0.205413      2.000000
 -0.017543 -0.059288  0.205413      2.000000
 -0.017651  0.177864  0.031673      2.000000
  0.035258 -0.118576 -0.132842      2.000000
 -0.035258 -0.118576  0.132842      2.000000
  0.017651  0.177864 -0.031673      2.000000
  0.017565 -0.059288 -0.170665      2.000000
 -0.017565 -0.059288  0.170665      2.000000
 -0.008825  0.148220  0.015836      2.000000
  0.026433 -0.088932 -0.117005      2.000000
 -0.026433 -0.088932  0.117005      2.000000
  0.008825  0.148220 -0.015836      2.000000
  0.017586 -0.059288 -0.135917      2.000000
 -0.017586 -0.059288  0.135917      2.000000
 -0.000000  0.118576  0.000000      2.000000
  0.017608 -0.059288 -0.101169      2.000000
 -0.017608 -0.059288  0.101169      2.000000
  0.052952  0.000000 -0.095018      2.000000
 -0.026540  0.088932 -0.056736      2.000000
  0.026540  0.088932  0.056736      2.000000
  0.061777 -0.029644 -0.110854      2.000000
 -0.035366  0.118576 -0.040899      2.000000
  0.035366  0.118576  0.040899      2.000000
 -0.061777 -0.029644  0.110854      2.000000
  0.026562 -0.088932  0.091484      2.000000
 -0.026562 -0.088932 -0.091484      2.000000
  0.070603 -0.059288 -0.126690      2.000000
 -0.044191  0.148220 -0.025063      2.000000
  0.044191  0.148220  0.025063      2.000000
 -0.070603 -0.059288  0.126690      2.000000
  0.026583 -0.088932  0.126232      2.000000
 -0.026583 -0.088932 -0.126232      2.000000
  0.079428 -0.088932 -0.142527      2.000000
  0.052888 -0.177864 -0.199262      2.000000
  0.053016  0.177864  0.009227      2.000000
  0.026476  0.266796 -0.047509      2.000000
  0.026605 -0.088932  0.160980      2.000000
 -0.026347 -0.088932  0.255998      2.000000
 -0.017651  0.237152  0.031673      2.000000
  0.044062 -0.148220 -0.183426      2.000000
 -0.044062 -0.148220  0.183426      2.000000
  0.017651  0.237152 -0.031673      2.000000
  0.026369 -0.088932 -0.221250      2.000000
 -0.026369 -0.088932  0.221250      2.000000
 -0.008825  0.207508  0.015836      2.000000
  0.035237 -0.118576 -0.167590      2.000000
 -0.035237 -0.118576  0.167590      2.000000
  0.008825  0.207508 -0.015836      2.000000
  0.026390 -0.088932 -0.186502      2.000000
 -0.026390 -0.088932  0.186502      2.000000
 -0.000000  0.177864  0.000000      2.000000
  0.026412 -0.088932 -0.151753      2.000000
 -0.026412 -0.088932  0.151753      2.000000
  0.070603  0.000000 -0.126690      2.000000
 -0.035387  0.118576 -0.075648      2.000000
  0.035387  0.118576  0.075648      2.000000
  0.079428 -0.029644 -0.142527      2.000000
 -0.044212  0.148220 -0.059811      2.000000
  0.044212  0.148220  0.059811      2.000000
 -0.079428 -0.029644  0.142527      2.000000
  0.035408 -0.118576  0.110396      2.000000
 -0.035408 -0.118576 -0.110396      2.000000
  0.088253 -0.059288 -0.158363      2.000000
  0.052866 -0.177864 -0.234010      2.000000
  0.053038  0.177864  0.043975      2.000000
  0.017651  0.296441 -0.031673      2.000000
  0.035430 -0.118576  0.145144      2.000000
 -0.035173 -0.118576  0.271834      2.000000
 -0.008825  0.266796  0.015836      2.000000
  0.044041 -0.148220 -0.218174      2.000000
 -0.044041 -0.148220  0.218174      2.000000
  0.008825  0.266796 -0.015836      2.000000
  0.035194 -0.118576 -0.237086      2.000000
 -0.035194 -0.118576  0.237086      2.000000
 -0.000000  0.237152  0.000000      2.000000
  0.035216 -0.118576 -0.202338      2.000000
 -0.035216 -0.118576  0.202338      2.000000
  0.088253  0.000000 -0.158363      2.000000
 -0.044234  0.148220 -0.094559      2.000000
  0.044234  0.148220  0.094559      2.000000
  0.097079 -0.029644 -0.174199      2.000000
  0.052845 -0.177864 -0.268759      2.000000
  0.053059  0.177864  0.078723      2.000000
  0.008825  0.326085 -0.015836      2.000000
  0.044255 -0.148220  0.129308      2.000000
 -0.043998 -0.148220  0.287671      2.000000
 -0.000000  0.296441  0.000000      2.000000
  0.044019 -0.148220 -0.252922      2.000000
 -0.044019 -0.148220  0.252922      2.000000
  0.105904  0.000000 -0.190035      1.000000
  0.053081 -0.177864  0.113471      1.000000
  0.053081  0.177864  0.113471      1.000000
  0.017672 -0.000000  0.003076      2.000000
  0.026497 -0.029644 -0.012761      2.000000
  0.026497  0.029644 -0.012761      2.000000
  0.017694 -0.000000  0.037824      2.000000
  0.035323 -0.059288 -0.028597      2.000000
  0.035323  0.059288 -0.028597      2.000000
  0.017715 -0.000000  0.072572      2.000000
  0.044148 -0.088932 -0.044433      2.000000
  0.044148  0.088932 -0.044433      2.000000
  0.017736 -0.000000  0.107320      2.000000
  0.052973 -0.118576 -0.060270      2.000000
  0.052973  0.118576 -0.060270      2.000000
  0.017758 -0.000000  0.142068      2.000000
  0.061799 -0.148220 -0.076106      2.000000
  0.061799  0.148220 -0.076106      2.000000
  0.017779 -0.000000  0.176816      2.000000
 -0.035280  0.177864  0.098093      2.000000
 -0.035280 -0.177864  0.098093      2.000000
  0.017543  0.000000 -0.205413      2.000000
 -0.026455  0.148220  0.082257      2.000000
 -0.026455 -0.148220  0.082257      2.000000
  0.017565  0.000000 -0.170665      2.000000
 -0.017629  0.118576  0.066421      2.000000
 -0.017629 -0.118576  0.066421      2.000000
  0.017586  0.000000 -0.135917      2.000000
 -0.008804  0.088932  0.050584      2.000000
 -0.008804 -0.088932  0.050584      2.000000
  0.017608  0.000000 -0.101169      2.000000
  0.000021  0.059288  0.034748      2.000000
  0.000021 -0.059288  0.034748      2.000000
  0.017629  0.000000 -0.066421      2.000000
  0.035323  0.000000 -0.028597      2.000000
 -0.026519  0.029644 -0.021987      2.000000
  0.026519  0.029644  0.021987      2.000000
  0.044148 -0.029644 -0.044433      2.000000
 -0.035344  0.059288 -0.006151      2.000000
  0.035344  0.059288  0.006151      2.000000
 -0.044148 -0.029644  0.044433      2.000000
  0.026540 -0.029644  0.056736      2.000000
 -0.026540 -0.029644 -0.056736      2.000000
  0.052973 -0.059288 -0.060270      2.000000
 -0.044169  0.088932  0.009685      2.000000
  0.044169  0.088932 -0.009685      2.000000
 -0.052973 -0.059288  0.060270      2.000000
  0.026562 -0.029644  0.091484      2.000000
 -0.026562 -0.029644 -0.091484      2.000000
  0.061799 -0.088932 -0.076106      2.000000
 -0.052995  0.118576  0.025521      2.000000
  0.052995  0.118576 -0.025521      2.000000
 -0.061799 -0.088932  0.076106      2.000000
  0.026583 -0.029644  0.126232      2.000000
 -0.026583 -0.029644 -0.126232      2.000000
  0.070624 -0.118576 -0.091942      2.000000
  0.044084 -0.207508 -0.148678      2.000000
  0.061820  0.148220 -0.041358      2.000000
  0.035280  0.237152 -0.098093      2.000000
  0.026605 -0.029644  0.160980      2.000000
 -0.026347 -0.029644  0.255998      2.000000
 -0.026455  0.207508  0.082257      2.000000
  0.035258 -0.177864 -0.132842      2.000000
 -0.035258 -0.177864  0.132842      2.000000
  0.026455  0.207508 -0.082257      2.000000
  0.026369 -0.029644 -0.221250      2.000000
 -0.026369 -0.029644  0.221250      2.000000
 -0.017629  0.177864  0.066421      2.000000
  0.026433 -0.148220 -0.117005      2.000000
 -0.026433 -0.148220  0.117005      2.000000
  0.017629  0.177864 -0.066421      2.000000
  0.026390 -0.029644 -0.186502      2.000000
 -0.026390 -0.029644  0.186502      2.000000
 -0.008804  0.148220  0.050584      2.000000
  0.017608 -0.118576 -0.101169      2.000000
 -0.017608 -0.118576  0.101169      2.000000
  0.008804  0.148220 -0.050584      2.000000
  0.026412 -0.029644 -0.151753      2.000000
 -0.026412 -0.029644  0.151753      2.000000
  0.000021  0.118576  0.034748      2.000000
  0.008782 -0.088932 -0.085333      2.000000
 -0.008782 -0.088932  0.085333      2.000000
 -0.000021  0.118576 -0.034748      2.000000
  0.026433 -0.029644 -0.117005      2.000000
 -0.026433 -0.029644  0.117005      2.000000
  0.008847  0.088932  0.018912      2.000000
 -0.000043 -0.059288 -0.069496      2.000000
  0.000043 -0.059288  0.069496      2.000000
 -0.008847  0.088932 -0.018912      2.000000
  0.026455 -0.029644 -0.082257      2.000000
 -0.026455 -0.029644  0.082257      2.000000
  0.052973  0.000000 -0.060270      2.000000
 -0.035366  0.059288 -0.040899      2.000000
  0.035366  0.059288  0.040899      2.000000
  0.061799 -0.029644 -0.076106      2.000000
 -0.044191  0.088932 -0.025063      2.000000
  0.044191  0.088932  0.025063      2.000000
 -0.061799 -0.029644  0.076106      2.000000
  0.035387 -0.059288  0.075648      2.000000
 -0.035387 -0.059288 -0.075648      2.000000
  0.070624 -0.059288 -0.091942      2.000000
 -0.053016  0.118576 -0.009227      2.000000
  0.053016  0.118576  0.009227      2.000000
 -0.070624 -0.059288  0.091942      2.000000
  0.035408 -0.059288  0.110396      2.000000
 -0.035408 -0.059288 -0.110396      2.000000
  0.079449 -0.088932 -0.107778      2.000000
  0.044062 -0.207508 -0.183426      2.000000
  0.061842  0.148220 -0.006609      2.000000
  0.026455  0.266796 -0.082257      2.000000
  0.035430 -0.059288  0.145144      2.000000
 -0.035173 -0.059288  0.271834      2.000000
 -0.017629  0.237152  0.066421      2.000000
  0.035237 -0.177864 -0.167590      2.000000
 -0.035237 -0.177864  0.167590      2.000000
  0.017629  0.237152 -0.066421      2.000000
  0.035194 -0.059288 -0.237086      2.000000
 -0.035194 -0.059288  0.237086      2.000000
 -0.008804  0.207508  0.050584      2.000000
  0.026412 -0.148220 -0.151753      2.000000
 -0.026412 -0.148220  0.151753      2.000000
  0.008804  0.207508 -0.050584      2.000000
  0.035216 -0.059288 -0.202338      2.000000
 -0.035216 -0.059288  0.202338      2.000000
  0.000021  0.177864  0.034748      2.000000
  0.017586 -0.118576 -0.135917      2.000000
 -0.017586 -0.118576  0.135917      2.000000
 -0.000021  0.177864 -0.034748      2.000000
  0.035237 -0.059288 -0.167590      2.000000
 -0.035237 -0.059288  0.167590      2.000000
  0.008847  0.148220  0.018912      2.000000
  0.008761 -0.088932 -0.120081      2.000000
 -0.008761 -0.088932  0.120081      2.000000
 -0.008847  0.148220 -0.018912      2.000000
  0.035258 -0.059288 -0.132842      2.000000
 -0.035258 -0.059288  0.132842      2.000000
  0.017672  0.118576  0.003076      2.000000
 -0.000064 -0.059288 -0.104245      2.000000
  0.000064 -0.059288  0.104245      2.000000
 -0.017672  0.118576 -0.003076      2.000000
  0.035280 -0.059288 -0.098093      2.000000
 -0.035280 -0.059288  0.098093      2.000000
  0.070624  0.000000 -0.091942      2.000000
 -0.044212  0.088932 -0.059811      2.000000
  0.044212  0.088932  0.059811      2.000000
  0.079449 -0.029644 -0.107778      2.000000
 -0.053038  0.118576 -0.043975      2.000000
  0.053038  0.118576  0.043975      2.000000
 -0.079449 -0.029644  0.107778      2.000000
  0.044234 -0.088932  0.094559      2.000000
 -0.044234 -0.088932 -0.094559      2.000000
  0.088275 -0.059288 -0.123615      2.000000
  0.044041 -0.207508 -0.218174      2.000000
  0.061863  0.148220  0.028139      2.000000
  0.017629  0.296441 -0.066421      2.000000
  0.044255 -0.088932  0.129308      2.000000
 -0.043998 -0.088932  0.287671      2.000000
 -0.008804  0.266796  0.050584      2.000000
  0.035216 -0.177864 -0.202338      2.000000
 -0.035216 -0.177864  0.202338      2.000000
  0.008804  0.266796 -0.050584      2.000000
  0.044019 -0.088932 -0.252922      2.000000
 -0.044019 -0.088932  0.252922      2.000000
  0.000021  0.237152  0.034748      2.000000
  0.026390 -0.148220 -0.186502      2.000000
 -0.026390 -0.148220  0.186502      2.000000
 -0.000021  0.237152 -0.034748      2.000000
  0.044041 -0.088932 -0.218174      2.000000
 -0.044041 -0.088932  0.218174      2.000000
  0.008847  0.207508  0.018912      2.000000
  0.017565 -0.118576 -0.170665      2.000000
 -0.017565 -0.118576  0.170665      2.000000
 -0.008847  0.207508 -0.018912      2.000000
  0.044062 -0.088932 -0.183426      2.000000
 -0.044062 -0.088932  0.183426      2.000000
  0.017672  0.177864  0.003076      2.000000
  0.008740 -0.088932 -0.154829      2.000000
 -0.008740 -0.088932  0.154829      2.000000
 -0.017672  0.177864 -0.003076      2.000000
  0.044084 -0.088932 -0.148678      2.000000
 -0.044084 -0.088932  0.148678      2.000000
  0.026497  0.148220 -0.012761      2.000000
 -0.000086 -0.059288 -0.138993      2.000000
  0.000086 -0.059288  0.138993      2.000000
 -0.026497  0.148220  0.012761      2.000000
  0.044105 -0.088932 -0.113930      2.000000
 -0.044105 -0.088932  0.113930      2.000000
  0.088275  0.000000 -0.123615      2.000000
 -0.053059  0.118576 -0.078723      2.000000
  0.053059  0.118576  0.078723      2.000000
  0.097100 -0.029644 -0.139451      2.000000
  0.044019 -0.207508 -0.252922      2.000000
  0.061884  0.148220  0.062887      2.000000
  0.008804  0.326085 -0.050584      2.000000
  0.053081 -0.118576  0.113471      2.000000
 -0.052823 -0.118576  0.303507      2.000000
  0.000021  0.296441  0.034748      2.000000
  0.035194 -0.177864 -0.237086      2.000000
 -0.035194 -0.177864  0.237086      2.000000
 -0.000021  0.296441 -0.034748      2.000000
  0.052845 -0.118576 -0.268759      2.000000
 -0.052845 -0.118576  0.268759      2.000000
  0.008847  0.266796  0.018912      2.000000
  0.026369 -0.148220 -0.221250      2.000000
 -0.026369 -0.148220  0.221250      2.000000
 -0.008847  0.266796 -0.018912      2.000000
  0.052866 -0.118576 -0.234010      2.000000
 -0.052866 -0.118576  0.234010      2.000000
  0.017672  0.237152  0.003076      2.000000
  0.017543 -0.118576 -0.205413      2.000000
 -0.017543 -0.118576  0.205413      2.000000
 -0.017672  0.237152 -0.003076      2.000000
  0.052888 -0.118576 -0.199262      2.000000
 -0.052888 -0.118576  0.199262      2.000000
  0.026497  0.207508 -0.012761      2.000000
  0.008718 -0.088932 -0.189577      2.000000
 -0.008718 -0.088932  0.189577      2.000000
 -0.026497  0.207508  0.012761      2.000000
  0.052909 -0.118576 -0.164514      2.000000
 -0.052909 -0.118576  0.164514      2.000000
  0.035323  0.177864 -0.028597      2.000000
 -0.000107 -0.059288 -0.173741      2.000000
  0.000107 -0.059288  0.173741      2.000000
 -0.035323  0.177864  0.028597      2.000000
  0.052930 -0.118576 -0.129766      2.000000
 -0.052930 -0.118576  0.129766      2.000000
  0.105925  0.000000 -0.155287      2.000000
  0.044255 -0.207508  0.129308      2.000000
  0.061906  0.148220  0.097635      2.000000
  0.008847  0.326085  0.018912      2.000000
  0.035430 -0.177864  0.145144      2.000000
 -0.035173 -0.177864  0.271834      2.000000
  0.097057 -0.029644 -0.208947      2.000000
  0.061670 -0.148220 -0.284595      2.000000
  0.044234  0.207508  0.094559      2.000000
  0.017672  0.296441  0.003076      2.000000
  0.026605 -0.148220  0.160980      2.000000
 -0.026347 -0.148220  0.255998      2.000000
  0.088232 -0.059288 -0.193111      2.000000
  0.061692 -0.148220 -0.249847      2.000000
  0.044212  0.207508  0.059811      2.000000
  0.026497  0.266796 -0.012761      2.000000
  0.017779 -0.118576  0.176816      2.000000
 -0.017522 -0.118576  0.240162      2.000000
  0.079406 -0.088932 -0.177275      2.000000
  0.061713 -0.148220 -0.215099      2.000000
  0.044191  0.207508  0.025063      2.000000
  0.035323  0.237152 -0.028597      2.000000
  0.008954 -0.088932  0.192653      2.000000
 -0.008697 -0.088932  0.224325      2.000000
  0.070581 -0.118576 -0.161438      2.000000
  0.061734 -0.148220 -0.180350      2.000000
  0.044169  0.207508 -0.009685      2.000000
  0.044148  0.207508 -0.044433      2.000000
  0.000129 -0.059288  0.208489      2.000000
  0.061756 -0.148220 -0.145602      2.000000
 -0.088232 -0.000000  0.193111      2.000000
  0.035408 -0.177864  0.110396      2.000000
 -0.035408 -0.177864 -0.110396      2.000000
 -0.079406 -0.029644  0.177275      2.000000
  0.026583 -0.148220  0.126232      2.000000
 -0.026583 -0.148220 -0.126232      2.000000
  0.079406 -0.029644 -0.177275      2.000000
 -0.035387  0.177864 -0.075648      2.000000
  0.035387  0.177864  0.075648      2.000000
 -0.070581 -0.059288  0.161438      2.000000
  0.017758 -0.118576  0.142068      2.000000
 -0.017758 -0.118576 -0.142068      2.000000
  0.070581 -0.059288 -0.161438      2.000000
 -0.035366  0.177864 -0.040899      2.000000
  0.035366  0.177864  0.040899      2.000000
 -0.061756 -0.088932  0.145602      2.000000
  0.008933 -0.088932  0.157905      2.000000
 -0.008933 -0.088932 -0.157905      2.000000
  0.061756 -0.088932 -0.145602      2.000000
 -0.035344  0.177864 -0.006151      2.000000
  0.035344  0.177864  0.006151      2.000000
 -0.070581 -0.000000  0.161438      2.000000
  0.026562 -0.148220  0.091484      2.000000
 -0.026562 -0.148220 -0.091484      2.000000
 -0.061756 -0.029644  0.145602      2.000000
[...]
 k-point 687 :   0.1667-0.3333-0.3333  plane waves:     861
 k-point 688 :  -0.2500-0.3333 0.1667  plane waves:     863
 k-point 689 :   0.2500-0.1667 0.3333  plane waves:     863
 k-point 690 :   0.1667-0.2500-0.3333  plane waves:     863
 k-point 691 :   0.3333 0.2500-0.1667  plane waves:     863
 k-point 692 :  -0.3333 0.1667-0.2500  plane waves:     863
 k-point 693 :  -0.1667 0.3333 0.2500  plane waves:     863
 k-point 694 :  -0.2500-0.2500 0.1667  plane waves:     862
 k-point 695 :   0.2500-0.1667 0.2500  plane waves:     862
 k-point 696 :   0.1667-0.2500-0.2500  plane waves:     862
 k-point 697 :   0.2500 0.2500 0.2500  plane waves:     848
 k-point 698 :   0.3333 0.2500 0.2500  plane waves:     850
 k-point 699 :   0.2500 0.3333 0.2500  plane waves:     850
 k-point 700 :   0.2500 0.2500 0.3333  plane waves:     850
 k-point 701 :   0.4167 0.2500 0.2500  plane waves:     855
 k-point 702 :   0.2500 0.4167 0.2500  plane waves:     855
 k-point 703 :   0.2500 0.2500 0.4167  plane waves:     855
 k-point 704 :   0.5000 0.2500 0.2500  plane waves:     854
 k-point 705 :   0.2500 0.5000 0.2500  plane waves:     854
 k-point 706 :   0.2500 0.2500 0.5000  plane waves:     854
 k-point 707 :  -0.4167 0.2500 0.2500  plane waves:     855
 k-point 708 :   0.2500-0.4167 0.2500  plane waves:     855
 k-point 709 :   0.2500 0.2500-0.4167  plane waves:     855
 k-point 710 :  -0.3333 0.2500 0.2500  plane waves:     860
 k-point 711 :   0.2500-0.3333 0.2500  plane waves:     860
 k-point 712 :   0.2500 0.2500-0.3333  plane waves:     860
 k-point 713 :  -0.2500 0.2500 0.2500  plane waves:     864
 k-point 714 :   0.2500-0.2500 0.2500  plane waves:     864
 k-point 715 :   0.2500 0.2500-0.2500  plane waves:     864
 k-point 716 :   0.3333 0.3333 0.2500  plane waves:     859
 k-point 717 :  -0.3333-0.2500-0.3333  plane waves:     859
 k-point 718 :   0.2500 0.3333 0.3333  plane waves:     859
 k-point 719 :   0.4167 0.3333 0.2500  plane waves:     855
 k-point 720 :  -0.4167-0.2500-0.3333  plane waves:     855
 k-point 721 :   0.2500 0.4167 0.3333  plane waves:     855
 k-point 722 :  -0.3333-0.4167-0.2500  plane waves:     855
 k-point 723 :   0.3333 0.2500 0.4167  plane waves:     855
 k-point 724 :  -0.2500-0.3333-0.4167  plane waves:     855
 k-point 725 :   0.5000 0.3333 0.2500  plane waves:     854
 k-point 726 :   0.5000-0.2500-0.3333  plane waves:     854
 k-point 727 :   0.2500 0.5000 0.3333  plane waves:     854
 k-point 728 :  -0.3333 0.5000-0.2500  plane waves:     854
 k-point 729 :   0.3333 0.2500 0.5000  plane waves:     854
 k-point 730 :  -0.2500-0.3333 0.5000  plane waves:     854
 k-point 731 :  -0.4167 0.3333 0.2500  plane waves:     859
 k-point 732 :   0.4167-0.2500-0.3333  plane waves:     859
 k-point 733 :   0.2500-0.4167 0.3333  plane waves:     859
 k-point 734 :  -0.3333 0.4167-0.2500  plane waves:     859
 k-point 735 :   0.3333 0.2500-0.4167  plane waves:     859
 k-point 736 :  -0.2500-0.3333 0.4167  plane waves:     859
 k-point 737 :  -0.3333 0.3333 0.2500  plane waves:     863
 k-point 738 :   0.3333-0.2500-0.3333  plane waves:     863
 k-point 739 :   0.2500-0.3333 0.3333  plane waves:     863
 k-point 740 :  -0.3333 0.3333-0.2500  plane waves:     863
 k-point 741 :   0.3333 0.2500-0.3333  plane waves:     863
 k-point 742 :  -0.2500-0.3333 0.3333  plane waves:     863
 k-point 743 :  -0.2500 0.3333 0.2500  plane waves:     860
 k-point 744 :   0.2500-0.2500-0.3333  plane waves:     860
 k-point 745 :   0.2500-0.2500 0.3333  plane waves:     860
 k-point 746 :  -0.3333 0.2500-0.2500  plane waves:     860
 k-point 747 :   0.3333 0.2500-0.2500  plane waves:     860
 k-point 748 :  -0.2500-0.3333 0.2500  plane waves:     860
 k-point 749 :   0.4167 0.4167 0.2500  plane waves:     857
 k-point 750 :  -0.4167-0.2500-0.4167  plane waves:     857
 k-point 751 :   0.2500 0.4167 0.4167  plane waves:     857
 k-point 752 :   0.5000 0.4167 0.2500  plane waves:     853
 k-point 753 :   0.5000-0.2500-0.4167  plane waves:     853
 k-point 754 :   0.2500 0.5000 0.4167  plane waves:     853
 k-point 755 :  -0.4167 0.5000-0.2500  plane waves:     853
 k-point 756 :   0.4167 0.2500 0.5000  plane waves:     853
 k-point 757 :  -0.2500-0.4167 0.5000  plane waves:     853
 k-point 758 :  -0.4167 0.4167 0.2500  plane waves:     855
 k-point 759 :   0.4167-0.2500-0.4167  plane waves:     855
 k-point 760 :   0.2500-0.4167 0.4167  plane waves:     855
 k-point 761 :  -0.4167 0.4167-0.2500  plane waves:     855
 k-point 762 :   0.4167 0.2500-0.4167  plane waves:     855
 k-point 763 :  -0.2500-0.4167 0.4167  plane waves:     855
 k-point 764 :  -0.3333 0.4167 0.2500  plane waves:     857
 k-point 765 :   0.3333-0.2500-0.4167  plane waves:     857
 k-point 766 :   0.2500-0.3333 0.4167  plane waves:     857
 k-point 767 :  -0.4167 0.3333-0.2500  plane waves:     857
 k-point 768 :   0.4167 0.2500-0.3333  plane waves:     857
 k-point 769 :  -0.2500-0.4167 0.3333  plane waves:     857
 k-point 770 :  -0.2500 0.4167 0.2500  plane waves:     861
 k-point 771 :   0.2500-0.2500-0.4167  plane waves:     861
 k-point 772 :   0.2500-0.2500 0.4167  plane waves:     861
 k-point 773 :  -0.4167 0.2500-0.2500  plane waves:     861
 k-point 774 :   0.4167 0.2500-0.2500  plane waves:     861
 k-point 775 :  -0.2500-0.4167 0.2500  plane waves:     861
 k-point 776 :   0.5000 0.5000 0.2500  plane waves:     859
 k-point 777 :   0.5000-0.2500 0.5000  plane waves:     859
 k-point 778 :   0.2500 0.5000 0.5000  plane waves:     859
 k-point 779 :  -0.4167 0.5000 0.2500  plane waves:     862
 k-point 780 :   0.4167-0.2500 0.5000  plane waves:     862
 k-point 781 :   0.2500-0.4167 0.5000  plane waves:     862
 k-point 782 :   0.5000 0.4167-0.2500  plane waves:     862
 k-point 783 :   0.5000 0.2500-0.4167  plane waves:     862
 k-point 784 :  -0.2500 0.5000 0.4167  plane waves:     862
 k-point 785 :  -0.3333 0.5000 0.2500  plane waves:     858
 k-point 786 :   0.3333-0.2500 0.5000  plane waves:     858
 k-point 787 :   0.2500-0.3333 0.5000  plane waves:     858
 k-point 788 :   0.5000 0.3333-0.2500  plane waves:     858
 k-point 789 :   0.5000 0.2500-0.3333  plane waves:     858
 k-point 790 :  -0.2500 0.5000 0.3333  plane waves:     858
 k-point 791 :  -0.2500 0.5000 0.2500  plane waves:     854
 k-point 792 :   0.2500-0.2500 0.5000  plane waves:     854
 k-point 793 :   0.5000 0.2500-0.2500  plane waves:     854
 k-point 794 :  -0.4167-0.4167 0.2500  plane waves:     864
 k-point 795 :   0.4167-0.2500 0.4167  plane waves:     864
 k-point 796 :   0.2500-0.4167-0.4167  plane waves:     864
 k-point 797 :  -0.3333-0.4167 0.2500  plane waves:     863
 k-point 798 :   0.3333-0.2500 0.4167  plane waves:     863
 k-point 799 :   0.2500-0.3333-0.4167  plane waves:     863
 k-point 800 :   0.4167 0.3333-0.2500  plane waves:     863
 k-point 801 :  -0.4167 0.2500-0.3333  plane waves:     863
 k-point 802 :  -0.2500 0.4167 0.3333  plane waves:     863
 k-point 803 :  -0.3333-0.3333 0.2500  plane waves:     862
 k-point 804 :   0.3333-0.2500 0.3333  plane waves:     862
 k-point 805 :   0.2500-0.3333-0.3333  plane waves:     862
 k-point 806 :   0.3333 0.3333 0.3333  plane waves:     857
 k-point 807 :   0.4167 0.3333 0.3333  plane waves:     854
 k-point 808 :   0.3333 0.4167 0.3333  plane waves:     854
 k-point 809 :   0.3333 0.3333 0.4167  plane waves:     854
 k-point 810 :   0.5000 0.3333 0.3333  plane waves:     853
 k-point 811 :   0.3333 0.5000 0.3333  plane waves:     853
 k-point 812 :   0.3333 0.3333 0.5000  plane waves:     853
 k-point 813 :  -0.4167 0.3333 0.3333  plane waves:     856
 k-point 814 :   0.3333-0.4167 0.3333  plane waves:     856
 k-point 815 :   0.3333 0.3333-0.4167  plane waves:     856
 k-point 816 :  -0.3333 0.3333 0.3333  plane waves:     860
 k-point 817 :   0.3333-0.3333 0.3333  plane waves:     860
 k-point 818 :   0.3333 0.3333-0.3333  plane waves:     860
 k-point 819 :   0.4167 0.4167 0.3333  plane waves:     859
 k-point 820 :  -0.4167-0.3333-0.4167  plane waves:     859
 k-point 821 :   0.3333 0.4167 0.4167  plane waves:     859
 k-point 822 :   0.5000 0.4167 0.3333  plane waves:     855
 k-point 823 :   0.5000-0.3333-0.4167  plane waves:     855
 k-point 824 :   0.3333 0.5000 0.4167  plane waves:     855
 k-point 825 :  -0.4167 0.5000-0.3333  plane waves:     855
 k-point 826 :   0.4167 0.3333 0.5000  plane waves:     855
 k-point 827 :  -0.3333-0.4167 0.5000  plane waves:     855
 k-point 828 :  -0.4167 0.4167 0.3333  plane waves:     854
 k-point 829 :   0.4167-0.3333-0.4167  plane waves:     854
 k-point 830 :   0.3333-0.4167 0.4167  plane waves:     854
 k-point 831 :  -0.4167 0.4167-0.3333  plane waves:     854
 k-point 832 :   0.4167 0.3333-0.4167  plane waves:     854
 k-point 833 :  -0.3333-0.4167 0.4167  plane waves:     854
 k-point 834 :  -0.3333 0.4167 0.3333  plane waves:     859
 k-point 835 :   0.3333-0.3333-0.4167  plane waves:     859
 k-point 836 :   0.3333-0.3333 0.4167  plane waves:     859
 k-point 837 :  -0.4167 0.3333-0.3333  plane waves:     859
 k-point 838 :   0.4167 0.3333-0.3333  plane waves:     859
 k-point 839 :  -0.3333-0.4167 0.3333  plane waves:     859
 k-point 840 :   0.5000 0.5000 0.3333  plane waves:     855
 k-point 841 :   0.5000-0.3333 0.5000  plane waves:     855
 k-point 842 :   0.3333 0.5000 0.5000  plane waves:     855
 k-point 843 :  -0.4167 0.5000 0.3333  plane waves:     859
 k-point 844 :   0.4167-0.3333 0.5000  plane waves:     859
 k-point 845 :   0.3333-0.4167 0.5000  plane waves:     859
 k-point 846 :   0.5000 0.4167-0.3333  plane waves:     859
 k-point 847 :   0.5000 0.3333-0.4167  plane waves:     859
 k-point 848 :  -0.3333 0.5000 0.4167  plane waves:     859
 k-point 849 :  -0.3333 0.5000 0.3333  plane waves:     854
 k-point 850 :   0.3333-0.3333 0.5000  plane waves:     854
 k-point 851 :   0.5000 0.3333-0.3333  plane waves:     854
 k-point 852 :  -0.4167-0.4167 0.3333  plane waves:     859
 k-point 853 :   0.4167-0.3333 0.4167  plane waves:     859
 k-point 854 :   0.3333-0.4167-0.4167  plane waves:     859
 k-point 855 :   0.4167 0.4167 0.4167  plane waves:     852
 k-point 856 :   0.5000 0.4167 0.4167  plane waves:     849
 k-point 857 :   0.4167 0.5000 0.4167  plane waves:     849
 k-point 858 :   0.4167 0.4167 0.5000  plane waves:     849
 k-point 859 :  -0.4167 0.4167 0.4167  plane waves:     855
 k-point 860 :   0.4167-0.4167 0.4167  plane waves:     855
 k-point 861 :   0.4167 0.4167-0.4167  plane waves:     855
 k-point 862 :   0.5000 0.5000 0.4167  plane waves:     856
 k-point 863 :   0.5000-0.4167 0.5000  plane waves:     856
 k-point 864 :   0.4167 0.5000 0.5000  plane waves:     856
 k-point 865 :  -0.4167 0.5000 0.4167  plane waves:     856
 k-point 866 :   0.4167-0.4167 0.5000  plane waves:     856
 k-point 867 :   0.5000 0.4167-0.4167  plane waves:     856
 k-point 868 :   0.5000 0.5000 0.5000  plane waves:     858

 maximum and minimum number of plane-waves per node :       233      185

 maximum number of plane-waves:       871
 maximum index in each direction: 
   IXMAX=    9   IYMAX=    9   IZMAX=    9
   IXMIN=   -9   IYMIN=   -9   IZMIN=   -9


 parallel 3D FFT for wavefunctions:
    minimum data exchange during FFTs selected (reduces bandwidth)
 parallel 3D FFT for charge:
    minimum data exchange during FFTs selected (reduces bandwidth)


 total amount of memory used by VASP MPI-rank0   178708. kBytes
=======================================================================

   base      :      30000. kBytes
   nonl-proj :      84759. kBytes
   fftplans  :       2660. kBytes
   grid      :       7040. kBytes
   one-center:         31. kBytes
   wavefun   :      54218. kBytes
 
     INWAV:  cpu time     11.2298: real time     11.7916
 Broyden mixing: mesh for mixing (old mesh)
   NGX = 19   NGY = 19   NGZ = 19
  (NGX  = 80   NGY  = 80   NGZ  = 80)
  gives a total of   6859 points

 charge density for first step will be calculated from the start-wavefunctions


--------------------------------------------------------------------------------------------------------


 Maximum index for augmentation-charges         9661 (set IRDMAX)


--------------------------------------------------------------------------------------------------------


 initial charge from wavefunction
 First call to EWALD:  gamma=   0.559
 Maximum number of real-space cells 3x 3x 3
 Maximum number of reciprocal cells 4x 4x 4

    FEWALD:  cpu time      0.0014: real time      0.0014


--------------------------------------- Ionic step        1  -------------------------------------------





 total charge

# of ion       s       p       d       tot
------------------------------------------
    1        2.019   0.052   0.000   2.070
    2        0.428   0.663   7.335   8.427
    3        1.557   3.471   0.000   5.028
    4        1.557   3.471   0.000   5.028
--------------------------------------------------
tot          5.560   7.657   7.335  20.553



 magnetization (x)

# of ion       s       p       d       tot
------------------------------------------
    1       -0.000  -0.000   0.000  -0.000
    2       -0.000  -0.000   0.000   0.000
    3        0.000   0.000   0.000   0.000
    4        0.000   0.000   0.000   0.000
--------------------------------------------------
tot         -0.000   0.000   0.000   0.000
 
    CHARGE:  cpu time      0.4741: real time      0.4798
    FORLOC:  cpu time      0.0017: real time      0.0017
    FORNL :  cpu time      0.1778: real time      0.1800
    STRESS:  cpu time      1.8583: real time      1.8825
    FORCOR:  cpu time      0.0541: real time      0.0546
    FORHAR:  cpu time      0.0055: real time      0.0055
    MIXING:  cpu time      0.0039: real time      0.0052
    OFIELD:  cpu time      0.0001: real time      0.0001

  FORCE on cell =-STRESS in cart. coord.  units (eV):
  Direction    XX          YY          ZZ          XY          YZ          ZX
  --------------------------------------------------------------------------------------
  Alpha Z    76.28266    76.28266    76.28266
  Ewald    -727.68168  -365.31059  -376.28928    -0.00000     0.00000   -63.06780
  Hartree   -21.20863   241.89849   233.92777    -0.00000     0.00000   -45.79118
  E(xc)       8.30622     8.24358     8.24550     0.00000     0.00000     0.01089
  Local     290.90623  -328.55606  -309.78830     0.00000    -0.00000   107.81155
  n-local   815.58599   810.67247   810.81783     0.00000    -0.00000     0.85678
  augment     0.00000     0.00000     0.00000     0.00000     0.00000     0.00000
  Kinetic   383.90324   378.44464   378.60995     0.00000     0.00000     0.95009
  Fock        0.00000     0.00000     0.00000     0.00000     0.00000     0.00000
  -------------------------------------------------------------------------------------
  Total     826.09404   821.67519   821.80613    -0.00000    -0.00000     0.77035
  in kB   41628.86086 41406.18455 41412.78267    -0.00001    -0.00004    38.81957
  external pressure =    41482.61 kB  Pullay stress =        0.00 kB


 VOLUME and BASIS-vectors are now :
 -----------------------------------------------------------------------------
  energy-cutoff  :      520.00
  volume of cell :       31.79
      direct lattice vectors                 reciprocal lattice vectors
     4.716041636 -1.405565895 -0.002909628     0.105903874 -0.355728600 -0.190035481
     4.716041653  1.405565954 -0.002909605     0.105903870  0.355728602 -0.190035473
     4.298619543  0.000000000  2.395555081     0.000257260 -0.000000003  0.416978156

  length of vectors
     4.921043859  4.921043892  4.921058232     0.416979558  0.416979555  0.416978235


 FORCES acting on ions
    electron-ion (+dipol)            ewald-force                    non-local-force                 convergence-correction
 -----------------------------------------------------------------------------------------------
   -.625E-03 -.796E-06 -.585E-04   0.654E-03 0.744E-06 0.735E-04   0.287E-04 0.514E-07 -.314E-05   0.179E-13 -.488E-15 0.127E-14
   0.324E-04 -.118E-06 0.626E-03   -.108E-03 0.783E-07 -.649E-03   0.978E-04 0.319E-07 -.676E-04   -.390E-13 0.597E-14 -.641E-14
   0.229E+03 -.114E-05 0.399E+02   -.243E+03 0.130E-05 -.424E+02   -.376E+01 -.152E-06 -.655E+00   0.424E-13 0.485E-14 0.585E-14
   -.229E+03 0.182E-05 -.399E+02   0.243E+03 -.212E-05 0.424E+02   0.376E+01 0.102E-06 0.655E+00   -.492E-13 -.754E-15 -.668E-14
 -----------------------------------------------------------------------------------------------
   -.128E-03 -.234E-06 0.600E-04   0.568E-13 0.476E-14 0.000E+00   0.143E-03 0.332E-07 -.626E-04   -.279E-13 0.958E-14 -.597E-14
 
 
 POSITION                                       TOTAL-FORCE (eV/Angst)
 -----------------------------------------------------------------------------------
     13.73070      0.00000      2.38974         0.000054      0.000000      0.000012
      6.86535      0.00000      1.19487         0.000018      0.000000     -0.000090
     10.43692      0.00000      1.81648       -17.955990      0.000000     -3.125092
      3.29379      0.00000      0.57325        17.955917     -0.000000      3.125170
 -----------------------------------------------------------------------------------
    total drift:                                0.000014     -0.000000     -0.000003


--------------------------------------------------------------------------------------------------------



  FREE ENERGIE OF THE ION-ELECTRON SYSTEM (eV)
  ---------------------------------------------------
  free  energy   TOTEN  =         0.00000000 eV

  energy  without entropy=        0.00000000  energy(sigma->0) =        0.00000000
 


--------------------------------------------------------------------------------------------------------


    POTLOK:  cpu time      0.3933: real time      0.3975


--------------------------------------------------------------------------------------------------------


 writing wavefunctions
     LOOP+:  cpu time      6.0108: real time      6.3649
    4ORBIT:  cpu time      0.0000: real time      0.0000



 total charge

# of ion       s       p       d       tot
------------------------------------------
    1        2.019   0.052   0.000   2.070
    2        0.428   0.663   7.335   8.427
    3        1.557   3.471   0.000   5.028
    4        1.557   3.471   0.000   5.028
--------------------------------------------------
tot          5.560   7.657   7.335  20.553



 magnetization (x)

# of ion       s       p       d       tot
------------------------------------------
    1       -0.000  -0.000   0.000  -0.000
    2       -0.000  -0.000   0.000   0.000
    3        0.000   0.000   0.000   0.000
    4        0.000   0.000   0.000   0.000
--------------------------------------------------
tot         -0.000   0.000   0.000   0.000
 
 BZINTS: Fermi energy:    6.585766;   24.000000 electrons
         Band energy:-0.706704E+02;  BLOECHL correction:    0.000000

 total amount of memory used by VASP MPI-rank0   178708. kBytes
=======================================================================

   base      :      30000. kBytes
   nonl-proj :      84759. kBytes
   fftplans  :       2660. kBytes
   grid      :       7040. kBytes
   one-center:         31. kBytes
   wavefun   :      54218. kBytes
 
  
  
 General timing and accounting informations for this job:
 ========================================================
  
                  Total CPU time used (sec):       37.263
                            User time (sec):       30.784
                          System time (sec):        6.479
                         Elapsed time (sec):       41.781
  
                   Maximum memory used (kb):      386888.
                   Average memory used (kb):          N/A
  
                          Minor page faults:        89558
                          Major page faults:           34
                 Voluntary context switches:        14838
