unknown system                          
   1.00000000000000     
     0.000000    2.041714    2.041714
     2.041714    0.000000    2.041714
     2.041714    2.041714    0.000000
   Li   F 
     1     1
Direct
  0.000000  0.000000  0.000000
  0.500000  0.500000  0.500000
 
   40   40   40
  174.63      167.08      146.16      116.49      84.005      54.212      30.804      15.140      6.4983      2.8116    
  1.5731      1.0107     0.71576     0.55377     0.45868     0.39823     0.35605     0.32408     0.29971     0.28375    
 0.27812     0.28375     0.29971     0.32408     0.35605     0.39823     0.45868     0.55377     0.71576      1.0107    
  1.5731      2.8116      6.4983      15.140      30.804      54.212      84.005      116.49      146.16      167.08    
  167.08      152.85      127.63      96.771      66.033      39.998      21.124      9.6336      4.0416      1.9966    
  1.2321     0.83786     0.62696     0.50780     0.43562     0.38794     0.35319     0.32631     0.30669     0.29604    
 0.29602     0.30665     0.32627     0.35317     0.38795     0.43566     0.50786     0.62700     0.83786      1.2321    
  1.9966      4.0416      9.6336      21.124      39.998      66.033      96.772      127.63      152.86      167.08    
  146.16      127.63      101.40      72.762      46.625      26.250      12.793      5.5255      2.5186      1.4833    
 0.98299     0.71974     0.57622     0.49387     0.44326     0.40881     0.38266     0.36225     0.34855     0.34363    
 0.34849     0.36217     0.38259     0.40880     0.44331     0.49397     0.57631     0.71979     0.98296      1.4832    
  2.5185      5.5255      12.793      26.251      46.626      72.763      101.40      127.63      146.16      152.86    
  116.49      96.771      72.762      49.042      29.216      15.151      6.8872      3.0832      1.7310      1.1340    
 0.82101     0.65490     0.56479     0.51433     0.48387     0.46250     0.44531     0.43187     0.42420     0.42417    
 0.43179     0.44522     0.46245     0.48389     0.51442     0.56491     0.65500     0.82103      1.1339      1.7308    
  3.0830      6.8872      15.151      29.216      49.043      72.763      96.772      116.49      127.63      127.63    
  84.005      66.033      46.625      29.216      16.024      7.7051      3.5317      1.9333      1.2680     0.91673    
 0.73317     0.63877     0.59191     0.56940     0.55739     0.54828     0.53966     0.53281     0.53013     0.53275    
 0.53957     0.54820     0.55737     0.56945     0.59202     0.63888     0.73323     0.91670      1.2679      1.9332    
  3.5316      7.7052      16.025      29.216      46.626      66.034      84.005      96.772      101.40      96.772    
  54.212      39.998      26.250      15.151      7.7051      3.7033      2.0507      1.3610     0.99179     0.79976    
 0.70577     0.66606     0.65523     0.65707     0.66129     0.66296     0.66182     0.66019     0.66017     0.66177    
 0.66290     0.66125     0.65708     0.65529     0.66614     0.70584     0.79978     0.99174      1.3609      2.0506    
  3.7032      7.7051      15.151      26.251      39.998      54.213      66.034      72.763      72.763      66.033    
  30.804      21.124      12.793      6.8872      3.5317      2.0507      1.3944      1.0331     0.84451     0.75652    
 0.72722     0.73102     0.75041     0.77280     0.79048     0.80090     0.80537     0.80645     0.80535     0.80087    
 0.79046     0.77279     0.75042     0.73106     0.72726     0.75655     0.84452      1.0331      1.3943      2.0506    
  3.5315      6.8870      12.793      21.124      30.804      39.998      46.626      49.043      46.626      39.998    
  15.140      9.6336      5.5255      3.0832      1.9333      1.3610      1.0331     0.86028     0.78384     0.76744    
 0.78749     0.82655     0.87059     0.90932     0.93731     0.95391     0.96119     0.96119     0.95391     0.93732    
 0.90932     0.87058     0.82654     0.78748     0.76745     0.78387     0.86031      1.0331      1.3610      1.9332    
  3.0830      5.5252      9.6333      15.140      21.124      26.251      29.216      29.216      26.251      21.124    
  6.4983      4.0416      2.5186      1.7310      1.2680     0.99179     0.84451     0.78384     0.78146     0.81761    
 0.87634     0.94331      1.0063      1.0570      1.0918      1.1114      1.1176      1.1114      1.0918      1.0570    
  1.0063     0.94329     0.87630     0.81758     0.78146     0.78389     0.84459     0.99187      1.2681      1.7309    
  2.5184      4.0413      6.4980      9.6333      12.793      15.151      16.025      15.151      12.793      9.6336    
  2.8116      1.9966      1.4833      1.1340     0.91673     0.79976     0.75652     0.76744     0.81761     0.89366    
 0.98210      1.0698      1.1461      1.2043      1.2423      1.2608      1.2608      1.2424      1.2044      1.1461    
  1.0698     0.98206     0.89360     0.81758     0.76746     0.75661     0.79991     0.91689      1.1341      1.4833    
  1.9965      2.8114      4.0413      5.5252      6.8870      7.7051      7.7052      6.8872      5.5255      4.0416    
  1.5731      1.2321     0.98299     0.82101     0.73317     0.70577     0.72722     0.78749     0.87634     0.98210    
  1.0920      1.1938      1.2782      1.3397      1.3765      1.3887      1.3765      1.3397      1.2782      1.1938    
  1.0919     0.98205     0.87629     0.78748     0.72727     0.70590     0.73337     0.82124     0.98320      1.2323    
  1.5732      1.9965      2.5184      3.0830      3.5315      3.7032      3.5316      3.0830      2.5185      1.9966    
  1.0107     0.83786     0.71974     0.65490     0.63877     0.66606     0.73102     0.82655     0.94331      1.0698    
  1.1938      1.3039      1.3916      1.4520      1.4825      1.4825      1.4520      1.3917      1.3039      1.1938    
  1.0698     0.94326     0.82651     0.73103     0.66613     0.63891     0.65510     0.71999     0.83811      1.0109    
  1.2323      1.4833      1.7309      1.9332      2.0506      2.0506      1.9332      1.7308      1.4832      1.2321    
 0.71576     0.62696     0.57622     0.56479     0.59191     0.65523     0.75041     0.87059      1.0063      1.1461    
  1.2782      1.3916      1.4782      1.5322      1.5505      1.5322      1.4782      1.3917      1.2782      1.1461    
  1.0063     0.87055     0.75037     0.65521     0.59194     0.56487     0.57635     0.62715     0.71599     0.83811    
 0.98320      1.1341      1.2681      1.3610      1.3943      1.3609      1.2679      1.1339     0.98296     0.83786    
 0.55377     0.50780     0.49387     0.51433     0.56940     0.65707     0.77280     0.90932      1.0570      1.2043    
  1.3397      1.4520      1.5322      1.5739      1.5739      1.5322      1.4520      1.3397      1.2043      1.0569    
 0.90929     0.77274     0.65699     0.56931     0.51426     0.49384     0.50782     0.55385     0.62715     0.71999    
 0.82124     0.91689     0.99187      1.0331      1.0331     0.99174     0.91670     0.82103     0.71979     0.62700    
 0.45868     0.43562     0.44326     0.48387     0.55739     0.66129     0.79048     0.93731      1.0918      1.2423    
  1.3765      1.4825      1.5505      1.5739      1.5505      1.4825      1.3765      1.2423      1.0918     0.93730    
 0.79044     0.66120     0.55725     0.48369     0.44307     0.43545     0.45856     0.50782     0.57635     0.65510    
 0.73337     0.79991     0.84459     0.86031     0.84452     0.79978     0.73323     0.65500     0.57631     0.50786    
 0.39823     0.38794     0.40881     0.46250     0.54828     0.66296     0.80090     0.95391      1.1114      1.2608    
  1.3887      1.4825      1.5322      1.5322      1.4825      1.3887      1.2608      1.1114     0.95392     0.80089    
 0.66291     0.54815     0.46231     0.40856     0.38766     0.39796     0.43545     0.49384     0.56487     0.63891    
 0.70590     0.75661     0.78389     0.78387     0.75655     0.70584     0.63888     0.56491     0.49397     0.43566    
 0.35605     0.35319     0.38266     0.44531     0.53966     0.66182     0.80537     0.96119      1.1176      1.2608    
  1.3765      1.4520      1.4782      1.4520      1.3765      1.2608      1.1176     0.96121     0.80540     0.66183    
 0.53961     0.44518     0.38245     0.35292     0.35574     0.38766     0.44307     0.51426     0.59194     0.66613    
 0.72727     0.76746     0.78146     0.76745     0.72726     0.66614     0.59202     0.51442     0.44331     0.38795    
 0.32408     0.32631     0.36225     0.43187     0.53281     0.66019     0.80645     0.96119      1.1114      1.2424    
  1.3397      1.3917      1.3917      1.3397      1.2423      1.1114     0.96121     0.80650     0.66025     0.53285    
 0.43187     0.36217     0.32616     0.32386     0.35292     0.40856     0.48369     0.56931     0.65521     0.73103    
 0.78748     0.81758     0.81758     0.78748     0.73106     0.65529     0.56945     0.48389     0.40880     0.35317    
 0.29971     0.30669     0.34855     0.42420     0.53013     0.66017     0.80535     0.95391      1.0918      1.2044    
  1.2782      1.3039      1.2782      1.2043      1.0918     0.95392     0.80540     0.66025     0.53023     0.42430    
 0.34861     0.30669     0.29965     0.32616     0.38245     0.46231     0.55725     0.65699     0.75037     0.82651    
 0.87629     0.89360     0.87630     0.82654     0.75042     0.65708     0.55737     0.46245     0.38259     0.32627    
 0.28375     0.29604     0.34363     0.42417     0.53275     0.66177     0.80087     0.93732      1.0570      1.1461    
  1.1938      1.1938      1.1461      1.0569     0.93730     0.80089     0.66183     0.53285     0.42430     0.34377    
 0.29616     0.28383     0.30669     0.36217     0.44518     0.54815     0.66120     0.77274     0.87055     0.94326    
 0.98205     0.98206     0.94329     0.87058     0.77279     0.66125     0.54820     0.44522     0.36217     0.30665    
 0.27812     0.29602     0.34849     0.43179     0.53957     0.66290     0.79046     0.90932      1.0063      1.0698    
  1.0919      1.0698      1.0063     0.90929     0.79044     0.66291     0.53961     0.43187     0.34861     0.29616    
 0.27827     0.29616     0.34861     0.43187     0.53961     0.66291     0.79044     0.90929      1.0063      1.0698    
  1.0919      1.0698      1.0063     0.90932     0.79046     0.66290     0.53957     0.43179     0.34849     0.29602    
 0.28375     0.30665     0.36217     0.44522     0.54820     0.66125     0.77279     0.87058     0.94329     0.98206    
 0.98205     0.94326     0.87055     0.77274     0.66120     0.54815     0.44518     0.36217     0.30669     0.28383    
 0.29616     0.34377     0.42430     0.53285     0.66183     0.80089     0.93730      1.0569      1.1461      1.1938    
  1.1938      1.1461      1.0570     0.93732     0.80087     0.66177     0.53275     0.42417     0.34363     0.29604    
 0.29971     0.32627     0.38259     0.46245     0.55737     0.65708     0.75042     0.82654     0.87630     0.89360    
 0.87629     0.82651     0.75037     0.65699     0.55725     0.46231     0.38245     0.32616     0.29965     0.30669    
 0.34861     0.42430     0.53023     0.66025     0.80540     0.95392      1.0918      1.2043      1.2782      1.3039    
  1.2782      1.2044      1.0918     0.95391     0.80535     0.66017     0.53013     0.42420     0.34855     0.30669    
 0.32408     0.35317     0.40880     0.48389     0.56945     0.65529     0.73106     0.78748     0.81758     0.81758    
 0.78748     0.73103     0.65521     0.56931     0.48369     0.40856     0.35292     0.32386     0.32616     0.36217    
 0.43187     0.53285     0.66025     0.80650     0.96121      1.1114      1.2423      1.3397      1.3917      1.3917    
  1.3397      1.2424      1.1114     0.96119     0.80645     0.66019     0.53281     0.43187     0.36225     0.32631    
 0.35605     0.38795     0.44331     0.51442     0.59202     0.66614     0.72726     0.76745     0.78146     0.76746    
 0.72727     0.66613     0.59194     0.51426     0.44307     0.38766     0.35574     0.35292     0.38245     0.44518    
 0.53961     0.66183     0.80540     0.96121      1.1176      1.2608      1.3765      1.4520      1.4782      1.4520    
  1.3765      1.2608      1.1176     0.96119     0.80537     0.66182     0.53966     0.44531     0.38266     0.35319    
 0.39823     0.43566     0.49397     0.56491     0.63888     0.70584     0.75655     0.78387     0.78389     0.75661    
 0.70590     0.63891     0.56487     0.49384     0.43545     0.39796     0.38766     0.40856     0.46231     0.54815    
 0.66291     0.80089     0.95392      1.1114      1.2608      1.3887      1.4825      1.5322      1.5322      1.4825    
  1.3887      1.2608      1.1114     0.95391     0.80090     0.66296     0.54828     0.46250     0.40881     0.38794    
 0.45868     0.50786     0.57631     0.65500     0.73323     0.79978     0.84452     0.86031     0.84459     0.79991    
 0.73337     0.65510     0.57635     0.50782     0.45856     0.43545     0.44307     0.48369     0.55725     0.66120    
 0.79044     0.93730      1.0918      1.2423      1.3765      1.4825      1.5505      1.5739      1.5505      1.4825    
  1.3765      1.2423      1.0918     0.93731     0.79048     0.66129     0.55739     0.48387     0.44326     0.43562    
 0.55377     0.62700     0.71979     0.82103     0.91670     0.99174      1.0331      1.0331     0.99187     0.91689    
 0.82124     0.71999     0.62715     0.55385     0.50782     0.49384     0.51426     0.56931     0.65699     0.77274    
 0.90929      1.0569      1.2043      1.3397      1.4520      1.5322      1.5739      1.5739      1.5322      1.4520    
  1.3397      1.2043      1.0570     0.90932     0.77280     0.65707     0.56940     0.51433     0.49387     0.50780    
 0.71576     0.83786     0.98296      1.1339      1.2679      1.3609      1.3943      1.3610      1.2681      1.1341    
 0.98320     0.83811     0.71599     0.62715     0.57635     0.56487     0.59194     0.65521     0.75037     0.87055    
  1.0063      1.1461      1.2782      1.3917      1.4782      1.5322      1.5505      1.5322      1.4782      1.3916    
  1.2782      1.1461      1.0063     0.87059     0.75041     0.65523     0.59191     0.56479     0.57622     0.62696    
  1.0107      1.2321      1.4832      1.7308      1.9332      2.0506      2.0506      1.9332      1.7309      1.4833    
  1.2323      1.0109     0.83811     0.71999     0.65510     0.63891     0.66613     0.73103     0.82651     0.94326    
  1.0698      1.1938      1.3039      1.3917      1.4520      1.4825      1.4825      1.4520      1.3916      1.3039    
  1.1938      1.0698     0.94331     0.82655     0.73102     0.66606     0.63877     0.65490     0.71974     0.83786    
  1.5731      1.9966      2.5185      3.0830      3.5316      3.7032      3.5315      3.0830      2.5184      1.9965    
  1.5732      1.2323     0.98320     0.82124     0.73337     0.70590     0.72727     0.78748     0.87629     0.98205    
  1.0919      1.1938      1.2782      1.3397      1.3765      1.3887      1.3765      1.3397      1.2782      1.1938    
  1.0920     0.98210     0.87634     0.78749     0.72722     0.70577     0.73317     0.82101     0.98299      1.2321    
  2.8116      4.0416      5.5255      6.8872      7.7052      7.7051      6.8870      5.5252      4.0413      2.8114    
  1.9965      1.4833      1.1341     0.91689     0.79991     0.75661     0.76746     0.81758     0.89360     0.98206    
  1.0698      1.1461      1.2044      1.2424      1.2608      1.2608      1.2423      1.2043      1.1461      1.0698    
 0.98210     0.89366     0.81761     0.76744     0.75652     0.79976     0.91673      1.1340      1.4833      1.9966    
  6.4983      9.6336      12.793      15.151      16.025      15.151      12.793      9.6333      6.4980      4.0413    
  2.5184      1.7309      1.2681     0.99187     0.84459     0.78389     0.78146     0.81758     0.87630     0.94329    
  1.0063      1.0570      1.0918      1.1114      1.1176      1.1114      1.0918      1.0570      1.0063     0.94331    
 0.87634     0.81761     0.78146     0.78384     0.84451     0.99179      1.2680      1.7310      2.5186      4.0416    
  15.140      21.124      26.251      29.216      29.216      26.251      21.124      15.140      9.6333      5.5252    
  3.0830      1.9332      1.3610      1.0331     0.86031     0.78387     0.76745     0.78748     0.82654     0.87058    
 0.90932     0.93732     0.95391     0.96119     0.96119     0.95391     0.93731     0.90932     0.87059     0.82655    
 0.78749     0.76744     0.78384     0.86028      1.0331      1.3610      1.9333      3.0832      5.5255      9.6336    
  30.804      39.998      46.626      49.043      46.626      39.998      30.804      21.124      12.793      6.8870    
  3.5315      2.0506      1.3943      1.0331     0.84452     0.75655     0.72726     0.73106     0.75042     0.77279    
 0.79046     0.80087     0.80535     0.80645     0.80537     0.80090     0.79048     0.77280     0.75041     0.73102    
 0.72722     0.75652     0.84451      1.0331      1.3944      2.0507      3.5317      6.8872      12.793      21.124    
  54.212      66.033      72.763      72.763      66.034      54.213      39.998      26.251      15.151      7.7051    
  3.7032      2.0506      1.3609     0.99174     0.79978     0.70584     0.66614     0.65529     0.65708     0.66125    
 0.66290     0.66177     0.66017     0.66019     0.66182     0.66296     0.66129     0.65707     0.65523     0.66606    
 0.70577     0.79976     0.99179      1.3610      2.0507      3.7033      7.7051      15.151      26.250      39.998    
  84.005      96.772      101.40      96.772      84.005      66.034      46.626      29.216      16.025      7.7052    
  3.5316      1.9332      1.2679     0.91670     0.73323     0.63888     0.59202     0.56945     0.55737     0.54820    
 0.53957     0.53275     0.53013     0.53281     0.53966     0.54828     0.55739     0.56940     0.59191     0.63877    
 0.73317     0.91673      1.2680      1.9333      3.5317      7.7051      16.024      29.216      46.625      66.033    
  116.49      127.63      127.63      116.49      96.772      72.763      49.043      29.216      15.151      6.8872    
  3.0830      1.7308      1.1339     0.82103     0.65500     0.56491     0.51442     0.48389     0.46245     0.44522    
 0.43179     0.42417     0.42420     0.43187     0.44531     0.46250     0.48387     0.51433     0.56479     0.65490    
 0.82101      1.1340      1.7310      3.0832      6.8872      15.151      29.216      49.042      72.762      96.771    
  146.16      152.86      146.16      127.63      101.40      72.763      46.626      26.251      12.793      5.5255    
  2.5185      1.4832     0.98296     0.71979     0.57631     0.49397     0.44331     0.40880     0.38259     0.36217    
 0.34849     0.34363     0.34855     0.36225     0.38266     0.40881     0.44326     0.49387     0.57622     0.71974    
 0.98299      1.4833      2.5186      5.5255      12.793      26.250      46.625      72.762      101.40      127.63    
  167.08      167.08      152.86      127.63      96.772      66.033      39.998      21.124      9.6336      4.0416    
  1.9966      1.2321     0.83786     0.62700     0.50786     0.43566     0.38795     0.35317     0.32627     0.30665    
 0.29602     0.29604     0.30669     0.32631     0.35319     0.38794     0.43562     0.50780     0.62696     0.83786    
  1.2321      1.9966      4.0416      9.6336      21.124      39.998      66.033      96.771      127.63      152.85    
  167.08      152.85      127.63      96.771      66.033      39.998      21.124      9.6336      4.0416      1.9966    
  1.2321     0.83786     0.62696     0.50780     0.43562     0.38794     0.35319     0.32631     0.30669     0.29604    
 0.29602     0.30665     0.32627     0.35317     0.38795     0.43566     0.50786     0.62700     0.83786      1.2321    
  1.9966      4.0416      9.6336      21.124      39.998      66.033      96.772      127.63      152.86      167.08    
  152.85      133.56      106.22      76.350      49.037      27.686      13.519      5.8112      2.5877      1.4877    
 0.96471     0.68838     0.53598     0.44670     0.39030     0.35110     0.32125     0.29824     0.28302     0.27760    
 0.28296     0.29816     0.32118     0.35109     0.39036     0.44680     0.53609     0.68843     0.96467      1.4876    
  2.5876      5.8111      13.520      27.686      49.037      76.351      106.22      133.56      152.86      159.82    
  127.63      106.22      80.095      54.206      32.462      16.916      7.6642      3.3201      1.7666      1.1142    
 0.77013     0.58394     0.47863     0.41556     0.37453     0.34465     0.32114     0.30358     0.29389     0.29385    
 0.30348     0.32103     0.34460     0.37456     0.41567     0.47877     0.58405     0.77014      1.1141      1.7664    
  3.3200      7.6642      16.916      32.463      54.207      80.096      106.22      127.63      139.73      139.73    
  96.771      76.350      54.206      34.212      18.901      9.0789      4.0165      2.0321      1.2637     0.85910    
 0.64194     0.52274     0.45543     0.41546     0.38898     0.36862     0.35211     0.34063     0.33642     0.34055    
 0.35200     0.36853     0.38896     0.41554     0.45557     0.52288     0.64202     0.85906      1.2635      2.0319    
  4.0164      9.0790      18.902      34.213      54.207      76.351      96.772      111.25      116.48      111.25    
  66.033      49.037      32.462      18.901      9.6088      4.4444      2.2361      1.3857     0.93952     0.69914    
 0.56987     0.50108     0.46509     0.44545     0.43231     0.42107     0.41150     0.40572     0.40568     0.41141    
 0.42097     0.43225     0.44547     0.46518     0.50121     0.56997     0.69916     0.93944      1.3855      2.2360    
  4.4443      9.6089      18.902      32.463      49.037      66.034      80.098      88.083      88.083      80.097    
  39.998      27.686      16.916      9.0789      4.4444      2.3141      1.4546     0.99572     0.74479     0.61119    
 0.54409     0.51464     0.50485     0.50276     0.50134     0.49829     0.49482     0.49328     0.49477     0.49822    
 0.50129     0.50274     0.50488     0.51472     0.54418     0.61124     0.74478     0.99563      1.4544      2.3139    
  4.4443      9.0789      16.916      27.686      39.998      51.574      59.870      62.888      59.870      51.574    
  21.124      13.519      7.6642      4.0165      2.2361      1.4546      1.0159     0.77011     0.63931     0.57722    
 0.55629     0.55840     0.57034     0.58286     0.59120     0.59484     0.59572     0.59571     0.59481     0.59117    
 0.58284     0.57034     0.55842     0.55632     0.57726     0.63933     0.77010      1.0159      1.4544      2.2360    
  4.0163      7.6640      13.519      21.124      29.222      36.078      40.017      40.017      36.078      29.222    
  9.6336      5.8112      3.3201      2.0321      1.3857     0.99572     0.77011     0.64927     0.59517     0.58389    
 0.59866     0.62610     0.65541     0.67942     0.69522     0.70340     0.70583     0.70341     0.69523     0.67942    
 0.65541     0.62608     0.59865     0.58388     0.59519     0.64930     0.77014     0.99572      1.3856      2.0319    
  3.3199      5.8108      9.6332      14.330      18.949      22.347      23.598      22.347      18.950      14.330    
  4.0416      2.5877      1.7666      1.2637     0.93952     0.74479     0.63931     0.59517     0.59353     0.62021    
 0.66274     0.70976     0.75217     0.78448     0.80508     0.81480     0.81481     0.80511     0.78451     0.75218    
 0.70975     0.66270     0.62017     0.59352     0.59520     0.63938     0.74489     0.93961      1.2637      1.7665    
  2.5875      4.0413      6.1719      8.6414      10.845      12.148      12.148      10.845      8.6417      6.1723    
  1.9966      1.4877      1.1142     0.85910     0.69914     0.61119     0.57722     0.58389     0.62021     0.67550    
 0.73886     0.80011     0.85155     0.88893     0.91106     0.91833     0.91109     0.88897     0.85158     0.80011    
 0.73882     0.67545     0.62016     0.58389     0.57728     0.61132     0.69931     0.85927      1.1143      1.4877    
  1.9965      2.7288      3.7173      4.7792      5.6063      5.9192      5.6064      4.7794      3.7175      2.7290    
  1.2321     0.96471     0.77013     0.64194     0.56987     0.54409     0.55629     0.59866     0.66274     0.73886    
 0.81685     0.88757     0.94428     0.98320      1.0028      1.0028     0.98323     0.94432     0.88759     0.81684    
 0.73881     0.66269     0.59863     0.55631     0.54419     0.57003     0.64216     0.77037     0.96491      1.2323    
  1.5673      1.9465      2.3490      2.7178      2.9437      2.9437      2.7179      2.3490      1.9465      1.5673    
 0.83786     0.68838     0.58394     0.52274     0.50108     0.51464     0.55840     0.62610     0.70976     0.80011    
 0.88757     0.96364      1.0219      1.0582      1.0706      1.0583      1.0219     0.96367     0.88757     0.80009    
 0.70972     0.62605     0.55838     0.51466     0.50117     0.52290     0.58415     0.68863     0.83811      1.0295    
  1.2510      1.4795      1.6821      1.8228      1.8733      1.8228      1.6820      1.4794      1.2508      1.0293    
 0.62696     0.53598     0.47863     0.45543     0.46509     0.50485     0.57034     0.65541     0.75217     0.85155    
 0.94428      1.0219      1.0776      1.1066      1.1066      1.0776      1.0219     0.94430     0.85155     0.75215    
 0.65537     0.57029     0.50480     0.46507     0.45545     0.47871     0.53612     0.62715     0.74838     0.89201    
  1.0446      1.1875      1.2993      1.3608      1.3608      1.2991      1.1873      1.0444     0.89177     0.74816    
 0.50780     0.44670     0.41556     0.41546     0.44545     0.50276     0.58286     0.67942     0.78448     0.88893    
 0.98320      1.0582      1.1066      1.1233      1.1066      1.0582     0.98321     0.88894     0.78448     0.67939    
 0.58281     0.50268     0.44534     0.41536     0.41548     0.44665     0.50782     0.59544     0.70296     0.82041    
 0.93474      1.0312      1.0958      1.1186      1.0957      1.0310     0.93456     0.82023     0.70282     0.59536    
 0.43562     0.39030     0.37453     0.38898     0.43231     0.50134     0.59120     0.69522     0.80508     0.91106    
  1.0028      1.0706      1.1066      1.1066      1.0706      1.0028     0.91107     0.80509     0.69521     0.59116    
 0.50127     0.43217     0.38880     0.37432     0.39010     0.43544     0.50727     0.59973     0.70420     0.80966    
 0.90380     0.97467      1.0127      1.0127     0.97458     0.90368     0.80956     0.70415     0.59976     0.50737    
 0.38794     0.35110     0.34465     0.36862     0.42107     0.49829     0.59484     0.70340     0.81480     0.91833    
  1.0028      1.0583      1.0776      1.0582      1.0028     0.91833     0.81480     0.70341     0.59483     0.49825    
 0.42098     0.36846     0.34442     0.35082     0.38765     0.45255     0.54048     0.64361     0.75172     0.85310    
 0.93599     0.99030      1.0092     0.99027     0.93594     0.85306     0.75174     0.64371     0.54067     0.45281    
 0.35319     0.32125     0.32114     0.35211     0.41150     0.49482     0.59572     0.70583     0.81481     0.91109    
 0.98323      1.0219      1.0219     0.98321     0.91107     0.81480     0.70584     0.59575     0.49483     0.41148    
 0.35203     0.32098     0.32102     0.35292     0.41518     0.50363     0.61127     0.72839     0.84331     0.94368    
  1.0181      1.0576      1.0576      1.0181     0.94368     0.84336     0.72850     0.61146     0.50389     0.41546    
 0.32631     0.29824     0.30358     0.34063     0.40572     0.49328     0.59571     0.70341     0.80511     0.88897    
 0.94432     0.96367     0.94430     0.88894     0.80509     0.70341     0.59575     0.49333     0.40578     0.34066    
 0.30355     0.29815     0.32616     0.38705     0.47768     0.59197     0.72087     0.85278     0.97460      1.0733    
  1.1375      1.1598      1.1375      1.0733     0.97465     0.85287     0.72101     0.59216     0.47789     0.38725    
 0.30669     0.28302     0.29389     0.33642     0.40568     0.49477     0.59481     0.69523     0.78451     0.85158    
 0.88759     0.88757     0.85155     0.78448     0.69521     0.59483     0.49483     0.40578     0.33652     0.29397    
 0.28307     0.30670     0.36548     0.45745     0.57768     0.71806     0.86746      1.0124      1.1382      1.2312    
  1.2807      1.2807      1.2312      1.1382      1.0124     0.86754     0.71816     0.57777     0.45753     0.36552    
 0.29604     0.27760     0.29385     0.34055     0.41141     0.49822     0.59117     0.67942     0.75218     0.80011    
 0.81684     0.80009     0.75215     0.67939     0.59116     0.49825     0.41148     0.34066     0.29397     0.27774    
 0.29617     0.35121     0.44225     0.56570     0.71476     0.87922      1.0458      1.1990      1.3231      1.4040    
  1.4321      1.4040      1.3231      1.1991      1.0458     0.87924     0.71476     0.56567     0.44218     0.35111    
 0.29602     0.28296     0.30348     0.35200     0.42097     0.50129     0.58284     0.65541     0.70975     0.73882    
 0.73881     0.70972     0.65537     0.58281     0.50127     0.42098     0.35203     0.30355     0.28307     0.29617    
 0.34615     0.43381     0.55702     0.71049     0.88540      1.0694      1.2471      1.4013      1.5155      1.5763    
  1.5763      1.5155      1.4013      1.2471      1.0694     0.88534     0.71039     0.55689     0.43366     0.34600    
 0.30665     0.29816     0.32103     0.36853     0.43225     0.50274     0.57034     0.62608     0.66270     0.67545    