unknown system                          
   1.00000000000000     
     0.000000    2.041714    2.041714
     2.041714    0.000000    2.041714
     2.041714    2.041714    0.000000
   Li   F 
     1     1
Direct
  0.000000  0.000000  0.000000
  0.500000  0.500000  0.500000
 
   40   40   40
 0.17463461667E+03 0.16708117179E+03 0.14616073033E+03 0.11648595024E+03 0.84004741254E+02
 0.54212291576E+02 0.30803817852E+02 0.15140480757E+02 0.64983305495E+01 0.28115833530E+01
 0.15731228698E+01 0.10107036425E+01 0.71576221174E+00 0.55376607088E+00 0.45867591384E+00
 0.39822743305E+00 0.35604535673E+00 0.32408015369E+00 0.29970826614E+00 0.28374912606E+00
 0.27812262554E+00 0.28374912585E+00 0.29970826632E+00 0.32408015514E+00 0.35604536010E+00
 0.39822743838E+00 0.45867592051E+00 0.55376607791E+00 0.71576221825E+00 0.10107036480E+01
 0.15731228742E+01 0.28115833559E+01 0.64983305503E+01 0.15140480755E+02 0.30803817844E+02
 0.54212291560E+02 0.84004741228E+02 0.11648595021E+03 0.14616073030E+03 0.16708117177E+03
 0.16708117178E+03 0.15285478134E+03 0.12763365897E+03 0.96771488472E+02 0.66032996594E+02
 0.39997694062E+02 0.21123762012E+02 0.96336042011E+01 0.40416455882E+01 0.19966222965E+01
 0.12321188625E+01 0.83785917326E+00 0.62696072876E+00 0.50780399968E+00 0.43561735653E+00
 0.38793828869E+00 0.35319369032E+00 0.32631276338E+00 0.30668988311E+00 0.29604075111E+00
 0.29602437191E+00 0.30664915923E+00 0.32626898203E+00 0.35317073938E+00 0.38795083338E+00
 0.43566277448E+00 0.50786225738E+00 0.62700281352E+00 0.83786128067E+00 0.12320764506E+01
 0.19965579606E+01 0.40416062812E+01 0.96336476871E+01 0.21123936222E+02 0.39998016764E+02
 0.66033442704E+02 0.96771990621E+02 0.12763412235E+03 0.15285510833E+03 0.16708128973E+03
 0.14616073031E+03 0.12763365896E+03 0.10139694484E+03 0.72762383577E+02 0.46624967128E+02
 0.26250350723E+02 0.12793241550E+02 0.55255174727E+01 0.25185603102E+01 0.14832900313E+01
 0.98299007961E+00 0.71974390043E+00 0.57621608088E+00 0.49387307904E+00 0.44325749580E+00
 0.40881226549E+00 0.38265524133E+00 0.36224647522E+00 0.34854791810E+00 0.34363230455E+00
 0.34849448186E+00 0.36216708516E+00 0.38259183386E+00 0.40880095246E+00 0.44331018838E+00
 0.49396963903E+00 0.57631148244E+00 0.71978847451E+00 0.98295518055E+00 0.14831882683E+01
 0.25184509459E+01 0.55254925326E+01 0.12793395844E+02 0.26250745330E+02 0.46625599756E+02
 0.72763177148E+02 0.10139776038E+03 0.12763433015E+03 0.14616110926E+03 0.15285510834E+03
 0.11648595022E+03 0.96771488464E+02 0.72762383574E+02 0.49042101783E+02 0.29215789702E+02
 0.15150781853E+02 0.68872030664E+01 0.30831612428E+01 0.17309702375E+01 0.11339979891E+01
 0.82101331264E+00 0.65490260746E+00 0.56478835149E+00 0.51432845392E+00 0.48386953387E+00
 0.46250370496E+00 0.44530684653E+00 0.43187348790E+00 0.42420428863E+00 0.42417052946E+00
 0.43178930886E+00 0.44521554504E+00 0.46245434964E+00 0.48389306706E+00 0.51442118985E+00
 0.56491083920E+00 0.65499565029E+00 0.82102549113E+00 0.11339137794E+01 0.17308264363E+01
 0.30830433560E+01 0.68872204342E+01 0.15151029032E+02 0.29216307244E+02 0.49042851285E+02
 0.72763247361E+02 0.96772296062E+02 0.11648652441E+03 0.12763433016E+03 0.12763412236E+03
 0.84004741239E+02 0.66032996587E+02 0.46624967125E+02 0.29215789702E+02 0.16024386209E+02
 0.77051426093E+01 0.35316635956E+01 0.19333196055E+01 0.12680412207E+01 0.91673157791E+00
 0.73317348042E+00 0.63877010750E+00 0.59191340506E+00 0.56939820517E+00 0.55738727009E+00
 0.54827516650E+00 0.53966025909E+00 0.53280920925E+00 0.53012700103E+00 0.53275108157E+00
 0.53957311953E+00 0.54820385471E+00 0.55737133830E+00 0.56945248165E+00 0.59201892404E+00
 0.63888008373E+00 0.73323285799E+00 0.91670274944E+00 0.12679254744E+01 0.19331646911E+01
 0.35315527933E+01 0.77051676189E+01 0.16024612839E+02 0.29216228815E+02 0.46625561932E+02
 0.66033632554E+02 0.84005276205E+02 0.96772296067E+02 0.10139776039E+03 0.96771990633E+02
 0.54212291567E+02 0.39997694058E+02 0.26250350722E+02 0.15150781854E+02 0.77051426103E+01
 0.37033410695E+01 0.20507409293E+01 0.13610435545E+01 0.99179289232E+00 0.79976167458E+00
 0.70576992681E+00 0.66606056885E+00 0.65523029374E+00 0.65707135158E+00 0.66129004889E+00
 0.66296127281E+00 0.66182445018E+00 0.66018841347E+00 0.66016642277E+00 0.66176907874E+00
 0.66289967834E+00 0.66125376345E+00 0.65708185013E+00 0.65528825391E+00 0.66614375863E+00
 0.70584087892E+00 0.79978271303E+00 0.99174254917E+00 0.13609279547E+01 0.20505949412E+01
 0.37032181857E+01 0.77050965146E+01 0.15150846267E+02 0.26250525160E+02 0.39997940721E+02
 0.54212545668E+02 0.66033632558E+02 0.72763247369E+02 0.72763177158E+02 0.66033442714E+02
 0.30803817849E+02 0.21123762013E+02 0.12793241552E+02 0.68872030696E+01 0.35316635982E+01
 0.20507409306E+01 0.13943887670E+01 0.10331400717E+01 0.84451022534E+00 0.75651562410E+00
 0.72721760175E+00 0.73102324587E+00 0.75040917029E+00 0.77279713348E+00 0.79048490732E+00
 0.80090276265E+00 0.80537142968E+00 0.80645196305E+00 0.80535301830E+00 0.80087395153E+00
 0.79045859151E+00 0.77278597895E+00 0.75042036852E+00 0.73105502763E+00 0.72725880445E+00
 0.75654846194E+00 0.84451541716E+00 0.10331025553E+01 0.13943021851E+01 0.20506094469E+01
 0.35315005590E+01 0.68870273554E+01 0.12793072538E+02 0.21123615706E+02 0.30803704411E+02
 0.39997940723E+02 0.46625561937E+02 0.49042851293E+02 0.46625599765E+02 0.39998016772E+02
 0.15140480760E+02 0.96336042055E+01 0.55255174779E+01 0.30831612477E+01 0.19333196092E+01
 0.13610435568E+01 0.10331400727E+01 0.86028471429E+00 0.78384437301E+00 0.76743829662E+00
 0.78748869145E+00 0.82654993055E+00 0.87059425553E+00 0.90932230932E+00 0.93731357383E+00
 0.95390589470E+00 0.96119045889E+00 0.96119246112E+00 0.95391009368E+00 0.93731563786E+00
 0.90931836330E+00 0.87058385616E+00 0.82653756219E+00 0.78748226389E+00 0.76744504965E+00
 0.78386534289E+00 0.86031044663E+00 0.10331496535E+01 0.13610084733E+01 0.19332118698E+01
 0.30829634044E+01 0.55252316710E+01 0.96332560455E+01 0.15140117022E+02 0.21123615708E+02
 0.26250525164E+02 0.29216228821E+02 0.29216307251E+02 0.26250745337E+02 0.21123936229E+02
 0.64983305561E+01 0.40416455954E+01 0.25185603171E+01 0.17309702433E+01 0.12680412250E+01
 0.99179289505E+00 0.84451022677E+00 0.78384437353E+00 0.78145917704E+00 0.81760943397E+00
 0.87634227419E+00 0.94331429991E+00 0.10062986797E+01 0.10569520580E+01 0.10918156717E+01
 0.11113675240E+01 0.11175637926E+01 0.11113867109E+01 0.10918427201E+01 0.10569701087E+01
 0.10062942540E+01 0.94328522520E+00 0.87630061163E+00 0.81757755943E+00 0.78145990062E+00
 0.78388896656E+00 0.84458921585E+00 0.99187436167E+00 0.12680779930E+01 0.17309151152E+01
 0.25183833342E+01 0.40413486255E+01 0.64979520669E+01 0.96332560469E+01 0.12793072541E+02
 0.15150846273E+02 0.16024612845E+02 0.15151029040E+02 0.12793395852E+02 0.96336476940E+01
 0.28115833619E+01 0.19966223049E+01 0.14832900386E+01 0.11339979948E+01 0.91673158200E+00
 0.79976167719E+00 0.75651562555E+00 0.76743829727E+00 0.81760943417E+00 0.89365869252E+00
 0.98210448466E+00 0.10698426579E+01 0.11461160621E+01 0.12043396808E+01 0.12423372296E+01
 0.12607674936E+01 0.12607816133E+01 0.12423717475E+01 0.12043748447E+01 0.11461299670E+01
 0.10698226417E+01 0.98205510431E+00 0.89360233159E+00 0.81757871335E+00 0.76746266864E+00
 0.75660751563E+00 0.79990765784E+00 0.91689317739E+00 0.11341221331E+01 0.14833269440E+01
 0.19965436688E+01 0.28113946382E+01 0.40413486266E+01 0.55252316735E+01 0.68870273595E+01
 0.77050965203E+01 0.77051676258E+01 0.68872204419E+01 0.55254925403E+01 0.40416062884E+01
 0.15731228791E+01 0.12321188706E+01 0.98299008617E+00 0.82101331756E+00 0.73317348381E+00
 0.70576992892E+00 0.72721760292E+00 0.78748869199E+00 0.87634227437E+00 0.98210448470E+00
 0.10919748329E+01 0.11937849126E+01 0.12781509973E+01 0.13396735633E+01 0.13765048871E+01
 0.13887061499E+01 0.13765304339E+01 0.13397106974E+01 0.12781783456E+01 0.11937840673E+01
 0.10919401568E+01 0.98204812023E+00 0.87629184169E+00 0.78747818177E+00 0.72727456633E+00
 0.70590398895E+00 0.73337049708E+00 0.82123819489E+00 0.98319718665E+00 0.12322668041E+01
 0.15731885320E+01 0.19965436696E+01 0.25183833360E+01 0.30829634076E+01 0.35315005637E+01
 0.37032181917E+01 0.35315528003E+01 0.30830433634E+01 0.25184509531E+01 0.19965579670E+01
 0.10107036507E+01 0.83785918008E+00 0.71974390568E+00 0.65490261123E+00 0.63877010999E+00
 0.66606057035E+00 0.73102324667E+00 0.82654993090E+00 0.94331430001E+00 0.10698426579E+01
 0.11937849125E+01 0.13038820010E+01 0.13916488147E+01 0.14519687428E+01 0.14825010463E+01
 0.14825117831E+01 0.14519953950E+01 0.13916771284E+01 0.13038953709E+01 0.11937721483E+01
 0.10698041541E+01 0.94326405719E+00 0.82651247088E+00 0.73102635644E+00 0.66612627080E+00
 0.63890721034E+00 0.65510325831E+00 0.71998559946E+00 0.83811130377E+00 0.10109359149E+01
 0.12322668047E+01 0.14833269455E+01 0.17309151177E+01 0.19332118735E+01 0.20506094519E+01
 0.20505949471E+01 0.19331646976E+01 0.17308264427E+01 0.14831882741E+01 0.12320764550E+01
 0.71576221830E+00 0.62696073392E+00 0.57621608469E+00 0.56478835414E+00 0.59191340677E+00
 0.65523029474E+00 0.75040917082E+00 0.87059425575E+00 0.10062986797E+01 0.11461160621E+01
 0.12781509973E+01 0.13916488146E+01 0.14781991949E+01 0.15321695375E+01 0.15504833974E+01
 0.15321821956E+01 0.14782185824E+01 0.13916651839E+01 0.12781543410E+01 0.11461000447E+01
 0.10062636659E+01 0.87054855287E+00 0.75036793257E+00 0.65521244779E+00 0.59193722312E+00
 0.56486707993E+00 0.57635447352E+00 0.62715346933E+00 0.71599456427E+00 0.83811130430E+00
 0.98319718786E+00 0.11341221352E+01 0.12680779961E+01 0.13610084773E+01 0.13943021900E+01
 0.13609279601E+01 0.12679254797E+01 0.11339137840E+01 0.98295518398E+00 0.83786128250E+00
 0.55376607566E+00 0.50780400333E+00 0.49387308170E+00 0.51432845576E+00 0.56939820639E+00
 0.65707135234E+00 0.77279713391E+00 0.90932230952E+00 0.10569520581E+01 0.12043396808E+01
 0.13396735632E+01 0.14519687428E+01 0.15321695375E+01 0.15739058630E+01 0.15739084760E+01
 0.15321767366E+01 0.14519783921E+01 0.13396815947E+01 0.12043400533E+01 0.10569376392E+01
 0.90928696576E+00 0.77273861067E+00 0.65699399091E+00 0.56931436799E+00 0.51425742665E+00
 0.49383739562E+00 0.50782374220E+00 0.55385247304E+00 0.62715346974E+00 0.71998560045E+00
 0.82123819661E+00 0.91689317996E+00 0.99187436508E+00 0.10331496575E+01 0.10331025597E+01
 0.99174255342E+00 0.91670275297E+00 0.82102549347E+00 0.71978847532E+00 0.62700281270E+00
 0.45867591721E+00 0.43561735914E+00 0.44325749778E+00 0.48386953534E+00 0.55738727118E+00
 0.66129004965E+00 0.79048490782E+00 0.93731357411E+00 0.10918156719E+01 0.12423372297E+01
 0.13765048871E+01 0.14825010464E+01 0.15504833975E+01 0.15739084761E+01 0.15504809732E+01
 0.14824991017E+01 0.13765066839E+01 0.12423426372E+01 0.10918182472E+01 0.93730042132E+00
 0.79043996899E+00 0.66120020603E+00 0.55724894369E+00 0.48369324091E+00 0.44306786155E+00
 0.43544799423E+00 0.45856042287E+00 0.50782374247E+00 0.57635447424E+00 0.65510325963E+00
 0.73337049913E+00 0.79990766062E+00 0.84458921918E+00 0.86031045018E+00 0.84451542048E+00
 0.79978271562E+00 0.73323285942E+00 0.65499565032E+00 0.57631148105E+00 0.50786225482E+00
 0.39822743559E+00 0.38793829079E+00 0.40881226724E+00 0.46250370643E+00 0.54827516770E+00
 0.66296127375E+00 0.80090276333E+00 0.95390589515E+00 0.11113675243E+01 0.12607674939E+01
 0.13887061501E+01 0.14825117834E+01 0.15321821959E+01 0.15321767368E+01 0.14824991019E+01
 0.13886950701E+01 0.12607662385E+01 0.11113771778E+01 0.95391632362E+00 0.80089328793E+00
 0.66290655692E+00 0.54815451883E+00 0.46231027702E+00 0.40855865341E+00 0.38765569628E+00
 0.39795806901E+00 0.43544799431E+00 0.49383739598E+00 0.56486708075E+00 0.63890721176E+00
 0.70590399099E+00 0.75660751816E+00 0.78388896927E+00 0.78386534538E+00 0.75654846377E+00
 0.70584087972E+00 0.63888008332E+00 0.56491083762E+00 0.49396963657E+00 0.43566277159E+00
 0.35604535893E+00 0.35319369232E+00 0.38265524316E+00 0.44530684817E+00 0.53966026050E+00
 0.66182445132E+00 0.80537143055E+00 0.96119045954E+00 0.11175637931E+01 0.12607816138E+01
 0.13765304345E+01 0.14519953956E+01 0.14782185831E+01 0.14519783927E+01 0.13765066843E+01
 0.12607662387E+01 0.11175682860E+01 0.96121490592E+00 0.80540091407E+00 0.66183179586E+00
 0.53961438220E+00 0.44518406383E+00 0.38244916600E+00 0.35291989044E+00 0.35573863634E+00
 0.38765569617E+00 0.44306786151E+00 0.51425742687E+00 0.59193722377E+00 0.66612627194E+00
 0.72727456788E+00 0.76746267039E+00 0.78145990223E+00 0.76744505076E+00 0.72725880476E+00
 0.66614375801E+00 0.59201892257E+00 0.51442118780E+00 0.44331018619E+00 0.38795083151E+00
 0.32408015586E+00 0.32631276547E+00 0.36224647719E+00 0.43187348970E+00 0.53280921080E+00
 0.66018841475E+00 0.80645196409E+00 0.96119246201E+00 0.11113867117E+01 0.12423717484E+01
 0.13397106985E+01 0.13916771296E+01 0.13916651850E+01 0.13396815957E+01 0.12423426379E+01
 0.11113771782E+01 0.96121490606E+00 0.80650428384E+00 0.66025217878E+00 0.53285432779E+00
 0.43186782567E+00 0.36216721731E+00 0.32615503487E+00 0.32385974023E+00 0.35291989019E+00
 0.40855865301E+00 0.48369324052E+00 0.56931436779E+00 0.65521244788E+00 0.73102635684E+00
 0.78747818236E+00 0.81757871392E+00 0.81757755971E+00 0.78748226367E+00 0.73105502682E+00
 0.65528825260E+00 0.56945248009E+00 0.48389306562E+00 0.40880095151E+00 0.35317073920E+00
 0.29970826832E+00 0.30668988524E+00 0.34854792012E+00 0.42420429046E+00 0.53012700262E+00
 0.66016642413E+00 0.80535301952E+00 0.95391009490E+00 0.10918427214E+01 0.12043748462E+01
 0.12781783473E+01 0.13038953727E+01 0.12781543427E+01 0.12043400546E+01 0.10918182482E+01
 0.95391632414E+00 0.80540091425E+00 0.66025217878E+00 0.53023193895E+00 0.42430027086E+00
 0.34860624498E+00 0.30669049923E+00 0.29964608671E+00 0.32615503455E+00 0.38244916537E+00
 0.46231027617E+00 0.55724894273E+00 0.65699398998E+00 0.75036793176E+00 0.82651247019E+00
 0.87629184104E+00 0.89360233086E+00 0.87630061070E+00 0.82653756104E+00 0.75042036723E+00
 0.65708184891E+00 0.55737133742E+00 0.46245434937E+00 0.38259183437E+00 0.32626898335E+00
 0.28374912814E+00 0.29604075314E+00 0.34363230647E+00 0.42417053121E+00 0.53275108315E+00
 0.66176908024E+00 0.80087395306E+00 0.93731563958E+00 0.10569701107E+01 0.11461299693E+01
 0.11937840698E+01 0.11937721508E+01 0.11461000469E+01 0.10569376409E+01 0.93730042243E+00
 0.80089328848E+00 0.66183179599E+00 0.53285432771E+00 0.42430027076E+00 0.34376743405E+00
 0.29615903707E+00 0.28383316186E+00 0.30669049892E+00 0.36216721662E+00 0.44518406273E+00
 0.54815451736E+00 0.66120020430E+00 0.77273860880E+00 0.87054855096E+00 0.94326405530E+00
 0.98204811839E+00 0.98205510254E+00 0.94328522352E+00 0.87058385468E+00 0.77278597781E+00
 0.66125376281E+00 0.54820385473E+00 0.44521554578E+00 0.36216708659E+00 0.30664916120E+00
 0.27812262739E+00 0.29602437373E+00 0.34849448363E+00 0.43178931056E+00 0.53957312124E+00
 0.66289968016E+00 0.79045859359E+00 0.90931836575E+00 0.10062942568E+01 0.10698226449E+01
 0.10919401601E+01 0.10698041572E+01 0.10062636685E+01 0.90928696772E+00 0.79043997019E+00
 0.66290655744E+00 0.53961438224E+00 0.43186782547E+00 0.34860624477E+00 0.29615903696E+00
 0.27826545010E+00 0.29615903683E+00 0.34860624436E+00 0.43186782454E+00 0.53961438051E+00
 0.66290655470E+00 0.79043996636E+00 0.90928696288E+00 0.10062636629E+01 0.10698041513E+01
 0.10919401542E+01 0.10698226394E+01 0.10062942521E+01 0.90931836200E+00 0.79045859083E+00
 0.66289967830E+00 0.53957312011E+00 0.43178930995E+00 0.34849448335E+00 0.29602437363E+00
 0.28374912744E+00 0.30664916091E+00 0.36216708693E+00 0.44521554694E+00 0.54820385684E+00
 0.66125376591E+00 0.77278598186E+00 0.87058385956E+00 0.94328522903E+00 0.98205510838E+00
 0.98204812425E+00 0.94326406082E+00 0.87054855582E+00 0.77273861276E+00 0.66120020724E+00
 0.54815451930E+00 0.44518406381E+00 0.36216721707E+00 0.30669049899E+00 0.28383316173E+00
 0.29615903681E+00 0.34376743359E+00 0.42430026988E+00 0.53285432614E+00 0.66183179349E+00
 0.80089328490E+00 0.93730041781E+00 0.10569376355E+01 0.11461000410E+01 0.11937721450E+01
 0.11937840645E+01 0.11461299648E+01 0.10569701071E+01 0.93731563696E+00 0.80087395122E+00
 0.66176907890E+00 0.53275108208E+00 0.42417053021E+00 0.34363230548E+00 0.29604075222E+00
 0.29970826784E+00 0.32626898383E+00 0.38259183597E+00 0.46245435211E+00 0.55737134121E+00
 0.65708185356E+00 0.75042037249E+00 0.82653756665E+00 0.87630061642E+00 0.89360233644E+00
 0.87629184627E+00 0.82651247484E+00 0.75036793567E+00 0.65699399302E+00 0.55724894488E+00
 0.46231027748E+00 0.38244916601E+00 0.32615503470E+00 0.29964608657E+00 0.30669049889E+00
 0.34860624443E+00 0.42430026996E+00 0.53023193745E+00 0.66025217645E+00 0.80540091092E+00
 0.95391631982E+00 0.10918182430E+01 0.12043400491E+01 0.12781543372E+01 0.13038953676E+01
 0.12781783431E+01 0.12043748429E+01 0.10918427190E+01 0.95391009306E+00 0.80535301799E+00
 0.66016642263E+00 0.53012700101E+00 0.42420428878E+00 0.34854791854E+00 0.30668988406E+00
 0.32408015695E+00 0.35317074170E+00 0.40880095531E+00 0.48389307048E+00 0.56945248566E+00
 0.65528825850E+00 0.73105503274E+00 0.78748226937E+00 0.81757756503E+00 0.81757871876E+00
 0.78747818665E+00 0.73102636051E+00 0.65521245087E+00 0.56931437006E+00 0.48369324208E+00
 0.40855865393E+00 0.35291989059E+00 0.32385974025E+00 0.32615503462E+00 0.36216721679E+00
 0.43186782477E+00 0.53285432633E+00 0.66025217655E+00 0.80650428070E+00 0.96121490200E+00
 0.11113771734E+01 0.12423426328E+01 0.13396815906E+01 0.13916651804E+01 0.13916771258E+01
 0.13397106956E+01 0.12423717462E+01 0.11113867101E+01 0.96119246047E+00 0.80645196241E+00
 0.66018841284E+00 0.53280920879E+00 0.43187348789E+00 0.36224647599E+00 0.32631276527E+00
 0.35604536260E+00 0.38795083659E+00 0.44331019230E+00 0.51442119444E+00 0.59201892926E+00
 0.66614376438E+00 0.72725881056E+00 0.76744505590E+00 0.78145990672E+00 0.76746267429E+00
 0.72727457125E+00 0.66612627477E+00 0.59193722606E+00 0.51425742861E+00 0.44306786272E+00
 0.38765569691E+00 0.35573863668E+00 0.35291989045E+00 0.38244916566E+00 0.44518406307E+00
 0.53961438086E+00 0.66183179375E+00 0.80540091105E+00 0.96121490202E+00 0.11175682814E+01
 0.12607662338E+01 0.13765066795E+01 0.14519783884E+01 0.14782185797E+01 0.14519953931E+01
 0.13765304327E+01 0.12607816125E+01 0.11175637917E+01 0.96119045796E+00 0.80537142869E+00
 0.66182444938E+00 0.53966025890E+00 0.44530684739E+00 0.38265524365E+00 0.35319369437E+00
 0.39822744190E+00 0.43566277883E+00 0.49396964414E+00 0.56491084497E+00 0.63888009003E+00
 0.70584088559E+00 0.75654846875E+00 0.78386534957E+00 0.78388897283E+00 0.75660752123E+00
 0.70590399366E+00 0.63890721404E+00 0.56486708263E+00 0.49383739744E+00 0.43544799537E+00
 0.39795806970E+00 0.38765569664E+00 0.40855865341E+00 0.46231027657E+00 0.54815451775E+00
 0.66290655501E+00 0.80089328507E+00 0.95391631983E+00 0.11113771732E+01 0.12607662337E+01
 0.13886950654E+01 0.14824990979E+01 0.15321767337E+01 0.15321821938E+01 0.14825117820E+01
 0.13887061491E+01 0.12607674928E+01 0.11113675230E+01 0.95390589357E+00 0.80090276175E+00
 0.66296127264E+00 0.54827516761E+00 0.46250370783E+00 0.40881227039E+00 0.38793829567E+00
 0.45867592517E+00 0.50786226289E+00 0.57631148866E+00 0.65499565706E+00 0.73323286512E+00
 0.79978272031E+00 0.84451542433E+00 0.86031045343E+00 0.84458922201E+00 0.79990766316E+00
 0.73337050142E+00 0.65510326163E+00 0.57635447590E+00 0.50782374379E+00 0.45856042386E+00
 0.43544799493E+00 0.44306786193E+00 0.48369324085E+00 0.55724894301E+00 0.66120020448E+00
 0.79043996641E+00 0.93730041768E+00 0.10918182427E+01 0.12423426324E+01 0.13765066792E+01
 0.14824990976E+01 0.15504809701E+01 0.15739084740E+01 0.15504833963E+01 0.14825010456E+01
 0.13765048864E+01 0.12423372287E+01 0.10918156706E+01 0.93731357296E+00 0.79048490726E+00
 0.66129005026E+00 0.55738727342E+00 0.48386953944E+00 0.44325750362E+00 0.43561736633E+00
 0.55376608365E+00 0.62700282004E+00 0.71978848165E+00 0.82102549869E+00 0.91670275719E+00
 0.99174255686E+00 0.10331025627E+01 0.10331496602E+01 0.99187436759E+00 0.91689318231E+00
 0.82123819875E+00 0.71998560229E+00 0.62715347125E+00 0.55385247423E+00 0.50782374312E+00
 0.49383739627E+00 0.51425742695E+00 0.56931436774E+00 0.65699398982E+00 0.77273860851E+00
 0.90928696243E+00 0.10569376349E+01 0.12043400483E+01 0.13396815898E+01 0.14519783877E+01
 0.15321767332E+01 0.15739084738E+01 0.15739058617E+01 0.15321695368E+01 0.14519687422E+01
 0.13396735624E+01 0.12043396798E+01 0.10569520573E+01 0.90932230937E+00 0.77279713501E+00
 0.65707135513E+00 0.56939821104E+00 0.51432846209E+00 0.49387308923E+00 0.50780401143E+00
 0.71576222493E+00 0.83786128811E+00 0.98295518855E+00 0.11339137877E+01 0.12679254829E+01
 0.13609279629E+01 0.13943021927E+01 0.13610084800E+01 0.12680779987E+01 0.11341221376E+01
 0.98319718994E+00 0.83811130597E+00 0.71599456553E+00 0.62715347028E+00 0.57635447424E+00
 0.56486708040E+00 0.59193722319E+00 0.65521244714E+00 0.75036793090E+00 0.87054854997E+00
 0.10062636618E+01 0.11461000398E+01 0.12781543359E+01 0.13916651791E+01 0.14782185786E+01
 0.15321821930E+01 0.15504833959E+01 0.15321695366E+01 0.14781991942E+01 0.13916488139E+01
 0.12781509965E+01 0.11461160615E+01 0.10062986798E+01 0.87059425708E+00 0.75040917380E+00
 0.65523029948E+00 0.59191341304E+00 0.56478836143E+00 0.57621609236E+00 0.62696074131E+00
 0.10107036555E+01 0.12320764590E+01 0.14831882775E+01 0.17308264458E+01 0.19331647007E+01
 0.20505949503E+01 0.20506094553E+01 0.19332118768E+01 0.17309151208E+01 0.14833269481E+01
 0.12322668067E+01 0.10109359163E+01 0.83811130463E+00 0.71998560002E+00 0.65510325868E+00
 0.63890721046E+00 0.66612627042E+00 0.73102635518E+00 0.82651246845E+00 0.94326405349E+00
 0.10698041494E+01 0.11937721431E+01 0.13038953659E+01 0.13916771242E+01 0.14519953918E+01
 0.14825117811E+01 0.14825010451E+01 0.14519687419E+01 0.13916488138E+01 0.13038820001E+01
 0.11937849120E+01 0.10698426581E+01 0.94331430137E+00 0.82654993380E+00 0.73102325116E+00
 0.66606057615E+00 0.63877011660E+00 0.65490261803E+00 0.71974391212E+00 0.83785918578E+00
 0.15731228829E+01 0.19965579705E+01 0.25184509568E+01 0.30830433675E+01 0.35315528049E+01
 0.37032181967E+01 0.35315005687E+01 0.30829634123E+01 0.25183833399E+01 0.19965436724E+01
 0.15731885337E+01 0.12322668049E+01 0.98319718692E+00 0.82123819490E+00 0.73337049694E+00
 0.70590398853E+00 0.72727456530E+00 0.78747817973E+00 0.87629183842E+00 0.98204811583E+00
 0.10919401517E+01 0.11937840622E+01 0.12781783410E+01 0.13397106938E+01 0.13765304314E+01
 0.13887061482E+01 0.13765048859E+01 0.13396735622E+01 0.12781509964E+01 0.11937849119E+01
 0.10919748331E+01 0.98210448602E+00 0.87634227712E+00 0.78748869612E+00 0.72721760811E+00
 0.70576993468E+00 0.73317348960E+00 0.82101332297E+00 0.98299009099E+00 0.12321188748E+01
 0.28115833662E+01 0.40416062934E+01 0.55254925464E+01 0.68872204490E+01 0.77051676337E+01
 0.77050965285E+01 0.68870273672E+01 0.55252316801E+01 0.40413486316E+01 0.28113946414E+01
 0.19965436702E+01 0.14833269442E+01 0.11341221327E+01 0.91689317674E+00 0.79990765706E+00
 0.75660751451E+00 0.76746266678E+00 0.81757871042E+00 0.89360232752E+00 0.98205509941E+00
 0.10698226365E+01 0.11461299623E+01 0.12043748408E+01 0.12423717446E+01 0.12607816113E+01
 0.12607674921E+01 0.12423372283E+01 0.12043396796E+01 0.11461160614E+01 0.10698426580E+01
 0.98210448594E+00 0.89365869516E+00 0.81760943805E+00 0.76743830200E+00 0.75651563061E+00
 0.79976168214E+00 0.91673158658E+00 0.11339979990E+01 0.14832900425E+01 0.19966223088E+01
 0.64983305629E+01 0.96336477026E+01 0.12793395862E+02 0.15151029051E+02 0.16024612858E+02
 0.15150846285E+02 0.12793072552E+02 0.96332560561E+01 0.64979520732E+01 0.40413486290E+01
 0.25183833353E+01 0.17309151148E+01 0.12680779919E+01 0.99187436029E+00 0.84458921430E+00
 0.78388896458E+00 0.78145989783E+00 0.81757755562E+00 0.87630060694E+00 0.94328522012E+00
 0.10062942491E+01 0.10569701046E+01 0.10918427170E+01 0.11113867086E+01 0.11175637908E+01
 0.11113675225E+01 0.10918156704E+01 0.10569520572E+01 0.10062986797E+01 0.94331430115E+00
 0.87634227682E+00 0.81760943780E+00 0.78145918159E+00 0.78384437825E+00 0.84451023126E+00
 0.99179289917E+00 0.12680412289E+01 0.17309702473E+01 0.25185603215E+01 0.40416456008E+01
 0.15140480771E+02 0.21123936242E+02 0.26250745353E+02 0.29216307269E+02 0.29216228840E+02
 0.26250525182E+02 0.21123615724E+02 0.15140117034E+02 0.96332560532E+01 0.55252316748E+01
 0.30829634052E+01 0.19332118687E+01 0.13610084714E+01 0.10331496513E+01 0.86031044423E+00
 0.78386533997E+00 0.76744504592E+00 0.78748225934E+00 0.82653755718E+00 0.87058385128E+00
 0.90931835910E+00 0.93731563461E+00 0.95391009131E+00 0.96119245932E+00 0.96119045732E+00
 0.95390589328E+00 0.93731357282E+00 0.90932230918E+00 0.87059425671E+00 0.82654993320E+00
 0.78748869537E+00 0.76743830127E+00 0.78384437776E+00 0.86028471873E+00 0.10331400767E+01
 0.13610435607E+01 0.19333196135E+01 0.30831612528E+01 0.55255174844E+01 0.96336042141E+01
 0.30803817864E+02 0.39998016789E+02 0.46625599785E+02 0.49042851317E+02 0.46625561962E+02
 0.39997940747E+02 0.30803704431E+02 0.21123615721E+02 0.12793072547E+02 0.68870273594E+01
 0.35315005594E+01 0.20506094453E+01 0.13943021825E+01 0.10331025524E+01 0.84451541385E+00
 0.75654845804E+00 0.72725879987E+00 0.73105502260E+00 0.75042036356E+00 0.77278597464E+00
 0.79045858819E+00 0.80087394917E+00 0.80535301656E+00 0.80645196157E+00 0.80537142829E+00
 0.80090276156E+00 0.79048490703E+00 0.77279713452E+00 0.75040917293E+00 0.73102324993E+00
 0.72721760666E+00 0.75651562915E+00 0.84451023003E+00 0.10331400760E+01 0.13943887712E+01
 0.20507409352E+01 0.35316636037E+01 0.68872030768E+01 0.12793241562E+02 0.21123762025E+02
 0.54212291582E+02 0.66033442734E+02 0.72763177183E+02 0.72763247398E+02 0.66033632589E+02
 0.54212545697E+02 0.39997940745E+02 0.26250525177E+02 0.15150846277E+02 0.77050965184E+01
 0.37032181856E+01 0.20505949389E+01 0.13609279514E+01 0.99174254540E+00 0.79978270877E+00
 0.70584087410E+00 0.66614375341E+00 0.65528824874E+00 0.65708184560E+00 0.66125375998E+00
 0.66289967597E+00 0.66176907715E+00 0.66016642148E+00 0.66018841221E+00 0.66182444908E+00
 0.66296127236E+00 0.66129004971E+00 0.65707135409E+00 0.65523029787E+00 0.66606057406E+00
 0.70576993230E+00 0.79976167972E+00 0.99179289693E+00 0.13610435589E+01 0.20507409341E+01
 0.37033410751E+01 0.77051426175E+01 0.15150781863E+02 0.26250350733E+02 0.39997694071E+02
 0.84004741253E+02 0.96771990653E+02 0.10139776042E+03 0.96772296102E+02 0.84005276242E+02
 0.66033632588E+02 0.46625561958E+02 0.29216228832E+02 0.16024612848E+02 0.77051676219E+01
 0.35315527925E+01 0.19331646882E+01 0.12679254704E+01 0.91670274483E+00 0.73323285281E+00
 0.63888007814E+00 0.59201891847E+00 0.56945247672E+00 0.55737133452E+00 0.54820385222E+00
 0.53957311804E+00 0.53275108054E+00 0.53012700002E+00 0.53280920822E+00 0.53966025848E+00
 0.54827516701E+00 0.55738727230E+00 0.56939820921E+00 0.59191341048E+00 0.63877011346E+00
 0.73317348611E+00 0.91673158296E+00 0.12680412253E+01 0.19333196102E+01 0.35316636009E+01
 0.77051426155E+01 0.16024386216E+02 0.29215789710E+02 0.46624967134E+02 0.66032996597E+02
 0.11648595023E+03 0.12763412238E+03 0.12763433019E+03 0.11648652445E+03 0.96772296102E+02
 0.72763247396E+02 0.49042851311E+02 0.29216307259E+02 0.15151029039E+02 0.68872204361E+01
 0.30830433544E+01 0.17308264327E+01 0.11339137747E+01 0.82102548570E+00 0.65499564431E+00
 0.56491083310E+00 0.51442118430E+00 0.48389306271E+00 0.46245434681E+00 0.44521554351E+00
 0.43178930806E+00 0.42417052878E+00 0.42420428781E+00 0.43187348721E+00 0.44530684667E+00
 0.46250370669E+00 0.48386953755E+00 0.51432845931E+00 0.56478835780E+00 0.65490261374E+00
 0.82101331825E+00 0.11339979940E+01 0.17309702421E+01 0.30831612473E+01 0.68872030713E+01
 0.15150781858E+02 0.29215789707E+02 0.49042101786E+02 0.72762383576E+02 0.96771488467E+02
 0.14616073032E+03 0.15285510836E+03 0.14616110929E+03 0.12763433019E+03 0.10139776042E+03
 0.72763177181E+02 0.46625599778E+02 0.26250745342E+02 0.12793395849E+02 0.55254925329E+01
 0.25184509433E+01 0.14831882640E+01 0.98295517517E+00 0.71978846833E+00 0.57631147587E+00
 0.49396963278E+00 0.44331018325E+00 0.40880094898E+00 0.38259183203E+00 0.36216708444E+00
 0.34849448152E+00 0.34363230405E+00 0.34854791747E+00 0.36224647503E+00 0.38265524244E+00
 0.40881226853E+00 0.44325750083E+00 0.49387308543E+00 0.57621608763E+00 0.71974390667E+00
 0.98299008496E+00 0.14832900359E+01 0.25185603142E+01 0.55255174762E+01 0.12793241553E+02
 0.26250350724E+02 0.46624967125E+02 0.72762383570E+02 0.10139694483E+03 0.12763365896E+03
 0.16708117178E+03 0.16708128975E+03 0.15285510837E+03 0.12763412239E+03 0.96771990656E+02
 0.66033442730E+02 0.39998016780E+02 0.21123936229E+02 0.96336476890E+01 0.40416062798E+01
 0.19965579571E+01 0.12320764456E+01 0.83786127467E+00 0.62700280677E+00 0.50786225056E+00
 0.43566276848E+00 0.38795082900E+00 0.35317073691E+00 0.32626898112E+00 0.30664915910E+00
 0.29602437180E+00 0.29604075072E+00 0.30668988278E+00 0.32631276392E+00 0.35319369255E+00
 0.38793829299E+00 0.43561736259E+00 0.50780400661E+00 0.62696073555E+00 0.83785917922E+00
 0.12321188674E+01 0.19966223004E+01 0.40416455910E+01 0.96336042023E+01 0.21123762011E+02
 0.39997694055E+02 0.66032996581E+02 0.96771488453E+02 0.12763365895E+03 0.15285478132E+03
 0.16708117180E+03 0.15285478135E+03 0.12763365898E+03 0.96771488479E+02 0.66032996599E+02
 0.39997694064E+02 0.21123762013E+02 0.96336042006E+01 0.40416455874E+01 0.19966222957E+01
 0.12321188616E+01 0.83785917246E+00 0.62696072797E+00 0.50780399892E+00 0.43561735583E+00
 0.38793828807E+00 0.35319368979E+00 0.32631276295E+00 0.30668988276E+00 0.29604075079E+00
 0.29602437160E+00 0.30664915891E+00 0.32626898169E+00 0.35317073903E+00 0.38795083301E+00
 0.43566277408E+00 0.50786225691E+00 0.62700281292E+00 0.83786127993E+00 0.12320764497E+01