   2   2   1   0
  0.8511081E+01  0.2887420E-09  0.2887420E-09  0.2887420E-09  0.5000000E-15
  1.000000000000000E-004
  CAR 
 unknown system                          
     26.53449712    -46.26050089  301      1.60221030      1.00000000
    -46.261  0.0000E+00  0.0000E+00
    -46.018  0.0000E+00  0.0000E+00
    -45.775  0.0000E+00  0.0000E+00
    -45.533  0.0000E+00  0.0000E+00
    -45.290  0.0000E+00  0.0000E+00
    -45.047  0.0000E+00  0.0000E+00
    -44.805  0.0000E+00  0.0000E+00
    -44.562  0.0000E+00  0.0000E+00
    -44.319  0.0000E+00  0.0000E+00
    -44.077  0.0000E+00  0.0000E+00
    -43.834  0.0000E+00  0.0000E+00
    -43.591  0.0000E+00  0.0000E+00
    -43.349  0.0000E+00  0.0000E+00
    -43.106  0.0000E+00  0.0000E+00
    -42.863  0.0000E+00  0.1005E-01
    -42.621  0.0000E+00  0.1005E-01
    -42.378  0.0000E+00  0.1005E-01
    -42.135  0.0000E+00  0.1005E-01
    -41.893  0.0000E+00  0.1005E-01
    -41.650  0.0000E+00  0.1005E-01
    -41.408  0.0000E+00  0.1005E-01
    -41.165  0.0000E+00  0.1005E-01
    -40.922  0.0000E+00  0.1005E-01
    -40.680  0.0000E+00  0.1005E-01
    -40.437  0.0000E+00  0.1005E-01
    -40.194  0.0000E+00  0.1005E-01
    -39.952  0.0000E+00  0.1005E-01
    -39.709  0.0000E+00  0.1005E-01
    -39.466  0.0000E+00  0.1005E-01
    -39.224  0.0000E+00  0.1005E-01
    -38.981  0.0000E+00  0.1005E-01
    -38.738  0.0000E+00  0.1005E-01
    -38.496  0.0000E+00  0.1005E-01
    -38.253  0.0000E+00  0.1005E-01
    -38.010  0.0000E+00  0.1005E-01
    -37.768  0.0000E+00  0.1005E-01
    -37.525  0.0000E+00  0.1005E-01
    -37.282  0.0000E+00  0.1005E-01
    -37.040  0.0000E+00  0.1005E-01
    -36.797  0.0000E+00  0.1005E-01
    -36.555  0.0000E+00  0.1005E-01
    -36.312  0.0000E+00  0.1005E-01
    -36.069  0.0000E+00  0.1005E-01
    -35.827  0.0000E+00  0.1005E-01
    -35.584  0.0000E+00  0.1005E-01
    -35.341  0.0000E+00  0.1005E-01
    -35.099  0.0000E+00  0.1005E-01
    -34.856  0.0000E+00  0.1005E-01
    -34.613  0.0000E+00  0.1005E-01
    -34.371  0.0000E+00  0.1005E-01
    -34.128  0.0000E+00  0.1005E-01
    -33.885  0.0000E+00  0.1005E-01
    -33.643  0.0000E+00  0.1005E-01
    -33.400  0.0000E+00  0.1005E-01
    -33.157  0.0000E+00  0.1005E-01
    -32.915  0.0000E+00  0.1005E-01
    -32.672  0.0000E+00  0.1005E-01
    -32.429  0.0000E+00  0.1005E-01
    -32.187  0.0000E+00  0.1005E-01
    -31.944  0.0000E+00  0.1005E-01
    -31.702  0.0000E+00  0.1005E-01
    -31.459  0.0000E+00  0.1005E-01
    -31.216  0.0000E+00  0.1005E-01
    -30.974  0.0000E+00  0.1005E-01
    -30.731  0.0000E+00  0.1005E-01
    -30.488  0.0000E+00  0.1005E-01
    -30.246  0.0000E+00  0.1005E-01
    -30.003  0.0000E+00  0.1005E-01
    -29.760  0.0000E+00  0.1005E-01
    -29.518  0.0000E+00  0.1005E-01
    -29.275  0.0000E+00  0.1005E-01
    -29.032  0.0000E+00  0.1005E-01
    -28.790  0.0000E+00  0.1005E-01
    -28.547  0.0000E+00  0.1005E-01
    -28.304  0.0000E+00  0.1005E-01
    -28.062  0.0000E+00  0.1005E-01
    -27.819  0.0000E+00  0.1005E-01
    -27.576  0.0000E+00  0.1005E-01
    -27.334  0.0000E+00  0.1005E-01
    -27.091  0.0000E+00  0.1005E-01
    -26.849  0.0000E+00  0.1005E-01
    -26.606  0.0000E+00  0.1005E-01
    -26.363  0.0000E+00  0.1005E-01
    -26.121  0.0000E+00  0.1005E-01
    -25.878  0.0000E+00  0.1005E-01
    -25.635  0.0000E+00  0.1005E-01
    -25.393  0.0000E+00  0.1005E-01
    -25.150  0.0000E+00  0.1005E-01
    -24.907  0.0000E+00  0.1005E-01
    -24.665  0.0000E+00  0.1005E-01
    -24.422  0.0000E+00  0.1005E-01
    -24.179  0.0000E+00  0.1005E-01
    -23.937  0.0000E+00  0.1005E-01
    -23.694  0.0000E+00  0.1005E-01
    -23.451  0.0000E+00  0.1005E-01
    -23.209  0.0000E+00  0.1005E-01
    -22.966  0.0000E+00  0.1005E-01
    -22.723  0.0000E+00  0.1005E-01
    -22.481  0.0000E+00  0.1005E-01
    -22.238  0.0000E+00  0.1005E-01
    -21.996  0.0000E+00  0.1005E-01
    -21.753  0.0000E+00  0.1005E-01
    -21.510  0.0000E+00  0.1005E-01
    -21.268  0.0000E+00  0.1005E-01
    -21.025  0.0000E+00  0.1005E-01
    -20.782  0.0000E+00  0.1005E-01
    -20.540  0.0000E+00  0.1005E-01
    -20.297  0.0000E+00  0.1005E-01
    -20.054  0.0000E+00  0.1005E-01
    -19.812  0.0000E+00  0.1005E-01
    -19.569  0.0000E+00  0.1005E-01
    -19.326  0.0000E+00  0.1005E-01
    -19.084  0.0000E+00  0.1005E-01
    -18.841  0.0000E+00  0.1005E-01
    -18.598  0.4598E-16  0.1005E-01
    -18.356  0.0000E+00  0.2010E-01
    -18.113  0.0000E+00  0.2010E-01
    -17.870  0.0000E+00  0.2010E-01
    -17.628  0.0000E+00  0.2010E-01
    -17.385  0.0000E+00  0.2010E-01
    -17.143  0.0000E+00  0.2010E-01
    -16.900  0.0000E+00  0.2010E-01
    -16.657  0.0000E+00  0.2010E-01
    -16.415  0.0000E+00  0.2010E-01
    -16.172  0.0000E+00  0.2010E-01
    -15.929  0.0000E+00  0.2010E-01
    -15.687  0.0000E+00  0.2010E-01
    -15.444  0.0000E+00  0.2010E-01
    -15.201  0.0000E+00  0.2010E-01
    -14.959  0.0000E+00  0.2010E-01
    -14.716  0.0000E+00  0.2010E-01
    -14.473  0.0000E+00  0.2010E-01
    -14.231  0.0000E+00  0.2010E-01
    -13.988  0.0000E+00  0.2010E-01
    -13.745  0.0000E+00  0.2010E-01
    -13.503  0.0000E+00  0.2010E-01
    -13.260  0.0000E+00  0.2010E-01
    -13.017  0.0000E+00  0.2010E-01
    -12.775  0.0000E+00  0.2010E-01
    -12.532  0.0000E+00  0.2010E-01
    -12.290  0.0000E+00  0.2010E-01
    -12.047  0.0000E+00  0.2010E-01
    -11.804  0.0000E+00  0.2010E-01
    -11.562  0.0000E+00  0.2010E-01
    -11.319  0.0000E+00  0.2010E-01
    -11.076  0.0000E+00  0.2010E-01
    -10.834  0.0000E+00  0.2010E-01
    -10.591  0.0000E+00  0.2010E-01
    -10.348  0.0000E+00  0.2010E-01
    -10.106  0.0000E+00  0.2010E-01
     -9.863  0.0000E+00  0.2010E-01
     -9.620  0.0000E+00  0.2010E-01
     -9.378  0.0000E+00  0.2010E-01
     -9.135  0.0000E+00  0.2010E-01
     -8.892  0.0000E+00  0.2010E-01
     -8.650  0.0000E+00  0.2010E-01
     -8.407  0.0000E+00  0.2010E-01
     -8.164  0.0000E+00  0.2010E-01
     -7.922  0.0000E+00  0.2010E-01
     -7.679  0.0000E+00  0.2010E-01
     -7.437  0.0000E+00  0.2010E-01
     -7.194  0.0000E+00  0.2010E-01
     -6.951  0.0000E+00  0.2010E-01
     -6.709  0.0000E+00  0.2010E-01
     -6.466  0.0000E+00  0.2010E-01
     -6.223  0.0000E+00  0.2010E-01
     -5.981  0.0000E+00  0.2010E-01
     -5.738  0.0000E+00  0.2010E-01
     -5.495  0.0000E+00  0.2010E-01
     -5.253  0.0000E+00  0.2010E-01
     -5.010  0.0000E+00  0.2010E-01
     -4.767  0.0000E+00  0.2010E-01
     -4.525  0.0000E+00  0.2010E-01
     -4.282  0.0000E+00  0.2010E-01
     -4.039  0.0000E+00  0.2010E-01
     -3.797  0.0000E+00  0.2010E-01
     -3.554  0.0000E+00  0.2010E-01
     -3.311  0.0000E+00  0.2010E-01
     -3.069  0.0000E+00  0.2010E-01
     -2.826  0.0000E+00  0.2010E-01
     -2.584  0.0000E+00  0.2010E-01
     -2.341  0.0000E+00  0.2010E-01
     -2.098  0.0000E+00  0.2010E-01
     -1.856  0.0000E+00  0.2010E-01
     -1.613  0.0000E+00  0.2010E-01
     -1.370  0.0000E+00  0.2010E-01
     -1.128  0.0000E+00  0.2010E-01
     -0.885  0.0000E+00  0.2010E-01
     -0.642  0.0000E+00  0.2010E-01
     -0.400  0.0000E+00  0.2010E-01
     -0.157  0.0000E+00  0.2010E-01
      0.086  0.0000E+00  0.2010E-01
      0.328  0.0000E+00  0.2010E-01
      0.571  0.0000E+00  0.2010E-01
      0.814  0.0000E+00  0.2010E-01
      1.056  0.0000E+00  0.2010E-01
      1.299  0.0000E+00  0.2010E-01
      1.542  0.0000E+00  0.5025E-01
      1.784  0.0000E+00  0.5025E-01
      2.027  0.0000E+00  0.5025E-01
      2.269  0.0000E+00  0.5025E-01
      2.512  0.0000E+00  0.5025E-01
      2.755  0.0000E+00  0.5025E-01
      2.997  0.0000E+00  0.5025E-01
      3.240  0.0000E+00  0.5025E-01
      3.483  0.0000E+00  0.5025E-01
      3.725  0.0000E+00  0.5025E-01
      3.968  0.0000E+00  0.5025E-01
      4.211  0.0000E+00  0.5025E-01
      4.453  0.0000E+00  0.5025E-01
      4.696  0.0000E+00  0.5025E-01
      4.939  0.0000E+00  0.5025E-01
      5.181  0.0000E+00  0.5025E-01
      5.424  0.0000E+00  0.5025E-01
      5.667  0.0000E+00  0.5025E-01
      5.909  0.0000E+00  0.5025E-01
      6.152  0.0000E+00  0.5025E-01
      6.395  0.0000E+00  0.5025E-01
      6.637  0.0000E+00  0.5025E-01
      6.880  0.0000E+00  0.5025E-01
      7.122  0.0000E+00  0.5025E-01
      7.365  0.0000E+00  0.5025E-01
      7.608  0.0000E+00  0.5025E-01
      7.850  0.0000E+00  0.5025E-01
      8.093  0.0000E+00  0.5025E-01
      8.336  0.0000E+00  0.5025E-01
      8.578  0.0000E+00  0.6030E-01
      8.821  0.0000E+00  0.6030E-01
      9.064  0.0000E+00  0.6030E-01
      9.306  0.0000E+00  0.6030E-01
      9.549  0.0000E+00  0.6030E-01
      9.792  0.0000E+00  0.6030E-01
     10.034  0.0000E+00  0.6030E-01
     10.277  0.0000E+00  0.6030E-01
     10.520  0.0000E+00  0.6030E-01
     10.762  0.0000E+00  0.6030E-01
     11.005  0.0000E+00  0.6030E-01
     11.248  0.0000E+00  0.6030E-01
     11.490  0.0000E+00  0.6030E-01
     11.733  0.0000E+00  0.6030E-01
     11.975  0.0000E+00  0.6030E-01
     12.218  0.0000E+00  0.6030E-01
     12.461  0.0000E+00  0.6030E-01
     12.703  0.0000E+00  0.6030E-01
     12.946  0.0000E+00  0.6030E-01
     13.189  0.0000E+00  0.6030E-01
     13.431  0.0000E+00  0.6030E-01
     13.674  0.0000E+00  0.6030E-01
     13.917  0.0000E+00  0.6030E-01
     14.159  0.0000E+00  0.6030E-01
     14.402  0.0000E+00  0.6030E-01
     14.645  0.0000E+00  0.6030E-01
     14.887  0.0000E+00  0.6030E-01
     15.130  0.0000E+00  0.6030E-01
     15.373  0.0000E+00  0.6030E-01
     15.615  0.0000E+00  0.6030E-01
     15.858  0.0000E+00  0.6030E-01
     16.101  0.0000E+00  0.6030E-01
     16.343  0.0000E+00  0.6030E-01
     16.586  0.0000E+00  0.6030E-01
     16.828  0.0000E+00  0.6030E-01
     17.071  0.0000E+00  0.6030E-01
     17.314  0.0000E+00  0.6030E-01
     17.556  0.0000E+00  0.6030E-01
     17.799  0.0000E+00  0.6030E-01
     18.042  0.0000E+00  0.6030E-01
     18.284  0.0000E+00  0.6030E-01
     18.527  0.0000E+00  0.6030E-01
     18.770  0.0000E+00  0.6030E-01
     19.012  0.0000E+00  0.6030E-01
     19.255  0.0000E+00  0.6030E-01
     19.498  0.0000E+00  0.6030E-01
     19.740  0.0000E+00  0.6030E-01
     19.983  0.0000E+00  0.6030E-01
     20.226  0.0000E+00  0.6030E-01
     20.468  0.0000E+00  0.6030E-01
     20.711  0.0000E+00  0.6030E-01
     20.954  0.0000E+00  0.6030E-01
     21.196  0.0000E+00  0.6030E-01
     21.439  0.0000E+00  0.6030E-01
     21.681  0.0000E+00  0.6030E-01
     21.924  0.0000E+00  0.6030E-01
     22.167  0.0000E+00  0.6030E-01
     22.409  0.0000E+00  0.9045E-01
     22.652  0.0000E+00  0.9045E-01
     22.895  0.0000E+00  0.9045E-01
     23.137  0.0000E+00  0.9045E-01
     23.380  0.0000E+00  0.1206E+00
     23.623  0.0000E+00  0.1206E+00
     23.865  0.0000E+00  0.1206E+00
     24.108  0.0000E+00  0.1206E+00
     24.351  0.0000E+00  0.1206E+00
     24.593  0.0000E+00  0.1206E+00
     24.836  0.0000E+00  0.1206E+00
     25.079  0.0000E+00  0.1206E+00
     25.321  0.0000E+00  0.1206E+00
     25.564  0.0000E+00  0.1206E+00
     25.807  0.0000E+00  0.1206E+00
     26.049  0.0000E+00  0.1206E+00
     26.292  0.0000E+00  0.1206E+00
     26.534  0.0000E+00  0.1206E+00
     26.53449712    -46.26050089  301      1.60221030      1.00000000
    -46.261  0.0000E+00  0.0000E+00  0.0000E+00  0.0000E+00  0.0000E+00  0.0000E+00  0.0000E+00  0.0000E+00  0.0000E+00
    -46.018  0.0000E+00  0.0000E+00  0.0000E+00  0.0000E+00  0.0000E+00  0.0000E+00  0.0000E+00  0.0000E+00  0.0000E+00
    -45.775  0.0000E+00  0.0000E+00  0.0000E+00  0.0000E+00  0.0000E+00  0.0000E+00  0.0000E+00  0.0000E+00  0.0000E+00
    -45.533  0.0000E+00  0.0000E+00  0.0000E+00  0.0000E+00  0.0000E+00  0.0000E+00  0.0000E+00  0.0000E+00  0.0000E+00
    -45.290  0.0000E+00  0.0000E+00  0.0000E+00  0.0000E+00  0.0000E+00  0.0000E+00  0.0000E+00  0.0000E+00  0.0000E+00
    -45.047  0.0000E+00  0.0000E+00  0.0000E+00  0.0000E+00  0.0000E+00  0.0000E+00  0.0000E+00  0.0000E+00  0.0000E+00
    -44.805  0.0000E+00  0.0000E+00  0.0000E+00  0.0000E+00  0.0000E+00  0.0000E+00  0.0000E+00  0.0000E+00  0.0000E+00
    -44.562  0.0000E+00  0.0000E+00  0.0000E+00  0.0000E+00  0.0000E+00  0.0000E+00  0.0000E+00  0.0000E+00  0.0000E+00
    -44.319  0.0000E+00  0.0000E+00  0.0000E+00  0.0000E+00  0.0000E+00  0.0000E+00  0.0000E+00  0.0000E+00  0.0000E+00
    -44.077  0.0000E+00  0.0000E+00  0.0000E+00  0.0000E+00  0.0000E+00  0.0000E+00  0.0000E+00  0.0000E+00  0.0000E+00
    -43.834  0.0000E+00  0.0000E+00  0.0000E+00  0.0000E+00  0.0000E+00  0.0000E+00  0.0000E+00  0.0000E+00  0.0000E+00
    -43.591  0.0000E+00  0.0000E+00  0.0000E+00  0.0000E+00  0.0000E+00  0.0000E+00  0.0000E+00  0.0000E+00  0.0000E+00
    -43.349  0.0000E+00  0.0000E+00  0.0000E+00  0.0000E+00  0.0000E+00  0.0000E+00  0.0000E+00  0.0000E+00  0.0000E+00
    -43.106  0.0000E+00  0.0000E+00  0.0000E+00  0.0000E+00  0.0000E+00  0.0000E+00  0.0000E+00  0.0000E+00  0.0000E+00
    -42.863  0.0000E+00  0.0000E+00  0.0000E+00  0.0000E+00  0.0000E+00  0.0000E+00  0.0000E+00  0.0000E+00  0.0000E+00
    -42.621  0.0000E+00  0.0000E+00  0.0000E+00  0.0000E+00  0.0000E+00  0.0000E+00  0.0000E+00  0.0000E+00  0.0000E+00
    -42.378  0.0000E+00  0.0000E+00  0.0000E+00  0.0000E+00  0.0000E+00  0.0000E+00  0.0000E+00  0.0000E+00  0.0000E+00
    -42.135  0.0000E+00  0.0000E+00  0.0000E+00  0.0000E+00  0.0000E+00  0.0000E+00  0.0000E+00  0.0000E+00  0.0000E+00
    -41.893  0.0000E+00  0.0000E+00  0.0000E+00  0.0000E+00  0.0000E+00  0.0000E+00  0.0000E+00  0.0000E+00  0.0000E+00
    -41.650  0.0000E+00  0.0000E+00  0.0000E+00  0.0000E+00  0.0000E+00  0.0000E+00  0.0000E+00  0.0000E+00  0.0000E+00
    -41.408  0.0000E+00  0.0000E+00  0.0000E+00  0.0000E+00  0.0000E+00  0.0000E+00  0.0000E+00  0.0000E+00  0.0000E+00
    -41.165  0.0000E+00  0.0000E+00  0.0000E+00  0.0000E+00  0.0000E+00  0.0000E+00  0.0000E+00  0.0000E+00  0.0000E+00
    -40.922  0.0000E+00  0.0000E+00  0.0000E+00  0.0000E+00  0.0000E+00  0.0000E+00  0.0000E+00  0.0000E+00  0.0000E+00
    -40.680  0.0000E+00  0.0000E+00  0.0000E+00  0.0000E+00  0.0000E+00  0.0000E+00  0.0000E+00  0.0000E+00  0.0000E+00
    -40.437  0.0000E+00  0.0000E+00  0.0000E+00  0.0000E+00  0.0000E+00  0.0000E+00  0.0000E+00  0.0000E+00  0.0000E+00
    -40.194  0.0000E+00  0.0000E+00  0.0000E+00  0.0000E+00  0.0000E+00  0.0000E+00  0.0000E+00  0.0000E+00  0.0000E+00
    -39.952  0.0000E+00  0.0000E+00  0.0000E+00  0.0000E+00  0.0000E+00  0.0000E+00  0.0000E+00  0.0000E+00  0.0000E+00
    -39.709  0.0000E+00  0.0000E+00  0.0000E+00  0.0000E+00  0.0000E+00  0.0000E+00  0.0000E+00  0.0000E+00  0.0000E+00
    -39.466  0.0000E+00  0.0000E+00  0.0000E+00  0.0000E+00  0.0000E+00  0.0000E+00  0.0000E+00  0.0000E+00  0.0000E+00
    -39.224  0.0000E+00  0.0000E+00  0.0000E+00  0.0000E+00  0.0000E+00  0.0000E+00  0.0000E+00  0.0000E+00  0.0000E+00
    -38.981  0.0000E+00  0.0000E+00  0.0000E+00  0.0000E+00  0.0000E+00  0.0000E+00  0.0000E+00  0.0000E+00  0.0000E+00
    -38.738  0.0000E+00  0.0000E+00  0.0000E+00  0.0000E+00  0.0000E+00  0.0000E+00  0.0000E+00  0.0000E+00  0.0000E+00
    -38.496  0.0000E+00  0.0000E+00  0.0000E+00  0.0000E+00  0.0000E+00  0.0000E+00  0.0000E+00  0.0000E+00  0.0000E+00
    -38.253  0.0000E+00  0.0000E+00  0.0000E+00  0.0000E+00  0.0000E+00  0.0000E+00  0.0000E+00  0.0000E+00  0.0000E+00
    -38.010  0.0000E+00  0.0000E+00  0.0000E+00  0.0000E+00  0.0000E+00  0.0000E+00  0.0000E+00  0.0000E+00  0.0000E+00
    -37.768  0.0000E+00  0.0000E+00  0.0000E+00  0.0000E+00  0.0000E+00  0.0000E+00  0.0000E+00  0.0000E+00  0.0000E+00
    -37.525  0.0000E+00  0.0000E+00  0.0000E+00  0.0000E+00  0.0000E+00  0.0000E+00  0.0000E+00  0.0000E+00  0.0000E+00
    -37.282  0.0000E+00  0.0000E+00  0.0000E+00  0.0000E+00  0.0000E+00  0.0000E+00  0.0000E+00  0.0000E+00  0.0000E+00
    -37.040  0.0000E+00  0.0000E+00  0.0000E+00  0.0000E+00  0.0000E+00  0.0000E+00  0.0000E+00  0.0000E+00  0.0000E+00
    -36.797  0.0000E+00  0.0000E+00  0.0000E+00  0.0000E+00  0.0000E+00  0.0000E+00  0.0000E+00  0.0000E+00  0.0000E+00
    -36.555  0.0000E+00  0.0000E+00  0.0000E+00  0.0000E+00  0.0000E+00  0.0000E+00  0.0000E+00  0.0000E+00  0.0000E+00
    -36.312  0.0000E+00  0.0000E+00  0.0000E+00  0.0000E+00  0.0000E+00  0.0000E+00  0.0000E+00  0.0000E+00  0.0000E+00
    -36.069  0.0000E+00  0.0000E+00  0.0000E+00  0.0000E+00  0.0000E+00  0.0000E+00  0.0000E+00  0.0000E+00  0.0000E+00
    -35.827  0.0000E+00  0.0000E+00  0.0000E+00  0.0000E+00  0.0000E+00  0.0000E+00  0.0000E+00  0.0000E+00  0.0000E+00
    -35.584  0.0000E+00  0.0000E+00  0.0000E+00  0.0000E+00  0.0000E+00  0.0000E+00  0.0000E+00  0.0000E+00  0.0000E+00
    -35.341  0.0000E+00  0.0000E+00  0.0000E+00  0.0000E+00  0.0000E+00  0.0000E+00  0.0000E+00  0.0000E+00  0.0000E+00
    -35.099  0.0000E+00  0.0000E+00  0.0000E+00  0.0000E+00  0.0000E+00  0.0000E+00  0.0000E+00  0.0000E+00  0.0000E+00
    -34.856  0.0000E+00  0.0000E+00  0.0000E+00  0.0000E+00  0.0000E+00  0.0000E+00  0.0000E+00  0.0000E+00  0.0000E+00
    -34.613  0.0000E+00  0.0000E+00  0.0000E+00  0.0000E+00  0.0000E+00  0.0000E+00  0.0000E+00  0.0000E+00  0.0000E+00
    -34.371  0.0000E+00  0.0000E+00  0.0000E+00  0.0000E+00  0.0000E+00  0.0000E+00  0.0000E+00  0.0000E+00  0.0000E+00
    -34.128  0.0000E+00  0.0000E+00  0.0000E+00  0.0000E+00  0.0000E+00  0.0000E+00  0.0000E+00  0.0000E+00  0.0000E+00
    -33.885  0.0000E+00  0.0000E+00  0.0000E+00  0.0000E+00  0.0000E+00  0.0000E+00  0.0000E+00  0.0000E+00  0.0000E+00
    -33.643  0.0000E+00  0.0000E+00  0.0000E+00  0.0000E+00  0.0000E+00  0.0000E+00  0.0000E+00  0.0000E+00  0.0000E+00
    -33.400  0.0000E+00  0.0000E+00  0.0000E+00  0.0000E+00  0.0000E+00  0.0000E+00  0.0000E+00  0.0000E+00  0.0000E+00
    -33.157  0.0000E+00  0.0000E+00  0.0000E+00  0.0000E+00  0.0000E+00  0.0000E+00  0.0000E+00  0.0000E+00  0.0000E+00
    -32.915  0.0000E+00  0.0000E+00  0.0000E+00  0.0000E+00  0.0000E+00  0.0000E+00  0.0000E+00  0.0000E+00  0.0000E+00
    -32.672  0.0000E+00  0.0000E+00  0.0000E+00  0.0000E+00  0.0000E+00  0.0000E+00  0.0000E+00  0.0000E+00  0.0000E+00
    -32.429  0.0000E+00  0.0000E+00  0.0000E+00  0.0000E+00  0.0000E+00  0.0000E+00  0.0000E+00  0.0000E+00  0.0000E+00
    -32.187  0.0000E+00  0.0000E+00  0.0000E+00  0.0000E+00  0.0000E+00  0.0000E+00  0.0000E+00  0.0000E+00  0.0000E+00
    -31.944  0.0000E+00  0.0000E+00  0.0000E+00  0.0000E+00  0.0000E+00  0.0000E+00  0.0000E+00  0.0000E+00  0.0000E+00
    -31.702  0.0000E+00  0.0000E+00  0.0000E+00  0.0000E+00  0.0000E+00  0.0000E+00  0.0000E+00  0.0000E+00  0.0000E+00
    -31.459  0.0000E+00  0.0000E+00  0.0000E+00  0.0000E+00  0.0000E+00  0.0000E+00  0.0000E+00  0.0000E+00  0.0000E+00
    -31.216  0.0000E+00  0.0000E+00  0.0000E+00  0.0000E+00  0.0000E+00  0.0000E+00  0.0000E+00  0.0000E+00  0.0000E+00
    -30.974  0.0000E+00  0.0000E+00  0.0000E+00  0.0000E+00  0.0000E+00  0.0000E+00  0.0000E+00  0.0000E+00  0.0000E+00
    -30.731  0.0000E+00  0.0000E+00  0.0000E+00  0.0000E+00  0.0000E+00  0.0000E+00  0.0000E+00  0.0000E+00  0.0000E+00
    -30.488  0.0000E+00  0.0000E+00  0.0000E+00  0.0000E+00  0.0000E+00  0.0000E+00  0.0000E+00  0.0000E+00  0.0000E+00
    -30.246  0.0000E+00  0.0000E+00  0.0000E+00  0.0000E+00  0.0000E+00  0.0000E+00  0.0000E+00  0.0000E+00  0.0000E+00
    -30.003  0.0000E+00  0.0000E+00  0.0000E+00  0.0000E+00  0.0000E+00  0.0000E+00  0.0000E+00  0.0000E+00  0.0000E+00
    -29.760  0.0000E+00  0.0000E+00  0.0000E+00  0.0000E+00  0.0000E+00  0.0000E+00  0.0000E+00  0.0000E+00  0.0000E+00
    -29.518  0.0000E+00  0.0000E+00  0.0000E+00  0.0000E+00  0.0000E+00  0.0000E+00  0.0000E+00  0.0000E+00  0.0000E+00
    -29.275  0.0000E+00  0.0000E+00  0.0000E+00  0.0000E+00  0.0000E+00  0.0000E+00  0.0000E+00  0.0000E+00  0.0000E+00
    -29.032  0.0000E+00  0.0000E+00  0.0000E+00  0.0000E+00  0.0000E+00  0.0000E+00  0.0000E+00  0.0000E+00  0.0000E+00
    -28.790  0.0000E+00  0.0000E+00  0.0000E+00  0.0000E+00  0.0000E+00  0.0000E+00  0.0000E+00  0.0000E+00  0.0000E+00
    -28.547  0.0000E+00  0.0000E+00  0.0000E+00  0.0000E+00  0.0000E+00  0.0000E+00  0.0000E+00  0.0000E+00  0.0000E+00
    -28.304  0.0000E+00  0.0000E+00  0.0000E+00  0.0000E+00  0.0000E+00  0.0000E+00  0.0000E+00  0.0000E+00  0.0000E+00
    -28.062  0.0000E+00  0.0000E+00  0.0000E+00  0.0000E+00  0.0000E+00  0.0000E+00  0.0000E+00  0.0000E+00  0.0000E+00
    -27.819  0.0000E+00  0.0000E+00  0.0000E+00  0.0000E+00  0.0000E+00  0.0000E+00  0.0000E+00  0.0000E+00  0.0000E+00
    -27.576  0.0000E+00  0.0000E+00  0.0000E+00  0.0000E+00  0.0000E+00  0.0000E+00  0.0000E+00  0.0000E+00  0.0000E+00
    -27.334  0.0000E+00  0.0000E+00  0.0000E+00  0.0000E+00  0.0000E+00  0.0000E+00  0.0000E+00  0.0000E+00  0.0000E+00
    -27.091  0.0000E+00  0.0000E+00  0.0000E+00  0.0000E+00  0.0000E+00  0.0000E+00  0.0000E+00  0.0000E+00  0.0000E+00
    -26.849  0.0000E+00  0.0000E+00  0.0000E+00  0.0000E+00  0.0000E+00  0.0000E+00  0.0000E+00  0.0000E+00  0.0000E+00
    -26.606  0.0000E+00  0.0000E+00  0.0000E+00  0.0000E+00  0.0000E+00  0.0000E+00  0.0000E+00  0.0000E+00  0.0000E+00
    -26.363  0.0000E+00  0.0000E+00  0.0000E+00  0.0000E+00  0.0000E+00  0.0000E+00  0.0000E+00  0.0000E+00  0.0000E+00
    -26.121  0.0000E+00  0.0000E+00  0.0000E+00  0.0000E+00  0.0000E+00  0.0000E+00  0.0000E+00  0.0000E+00  0.0000E+00
    -25.878  0.0000E+00  0.0000E+00  0.0000E+00  0.0000E+00  0.0000E+00  0.0000E+00  0.0000E+00  0.0000E+00  0.0000E+00
    -25.635  0.0000E+00  0.0000E+00  0.0000E+00  0.0000E+00  0.0000E+00  0.0000E+00  0.0000E+00  0.0000E+00  0.0000E+00
    -25.393  0.0000E+00  0.0000E+00  0.0000E+00  0.0000E+00  0.0000E+00  0.0000E+00  0.0000E+00  0.0000E+00  0.0000E+00
    -25.150  0.0000E+00  0.0000E+00  0.0000E+00  0.0000E+00  0.0000E+00  0.0000E+00  0.0000E+00  0.0000E+00  0.0000E+00
    -24.907  0.0000E+00  0.0000E+00  0.0000E+00  0.0000E+00  0.0000E+00  0.0000E+00  0.0000E+00  0.0000E+00  0.0000E+00
    -24.665  0.0000E+00  0.0000E+00  0.0000E+00  0.0000E+00  0.0000E+00  0.0000E+00  0.0000E+00  0.0000E+00  0.0000E+00
    -24.422  0.0000E+00  0.0000E+00  0.0000E+00  0.0000E+00  0.0000E+00  0.0000E+00  0.0000E+00  0.0000E+00  0.0000E+00
    -24.179  0.0000E+00  0.0000E+00  0.0000E+00  0.0000E+00  0.0000E+00  0.0000E+00  0.0000E+00  0.0000E+00  0.0000E+00
    -23.937  0.0000E+00  0.0000E+00  0.0000E+00  0.0000E+00  0.0000E+00  0.0000E+00  0.0000E+00  0.0000E+00  0.0000E+00
    -23.694  0.0000E+00  0.0000E+00  0.0000E+00  0.0000E+00  0.0000E+00  0.0000E+00  0.0000E+00  0.0000E+00  0.0000E+00
    -23.451  0.0000E+00  0.0000E+00  0.0000E+00  0.0000E+00  0.0000E+00  0.0000E+00  0.0000E+00  0.0000E+00  0.0000E+00
    -23.209  0.0000E+00  0.0000E+00  0.0000E+00  0.0000E+00  0.0000E+00  0.0000E+00  0.0000E+00  0.0000E+00  0.0000E+00
    -22.966  0.0000E+00  0.0000E+00  0.0000E+00  0.0000E+00  0.0000E+00  0.0000E+00  0.0000E+00  0.0000E+00  0.0000E+00
    -22.723  0.0000E+00  0.0000E+00  0.0000E+00  0.0000E+00  0.0000E+00  0.0000E+00  0.0000E+00  0.0000E+00  0.0000E+00
    -22.481  0.0000E+00  0.0000E+00  0.0000E+00  0.0000E+00  0.0000E+00  0.0000E+00  0.0000E+00  0.0000E+00  0.0000E+00
    -22.238  0.0000E+00  0.0000E+00  0.0000E+00  0.0000E+00  0.0000E+00  0.0000E+00  0.0000E+00  0.0000E+00  0.0000E+00
    -21.996  0.0000E+00  0.0000E+00  0.0000E+00  0.0000E+00  0.0000E+00  0.0000E+00  0.0000E+00  0.0000E+00  0.0000E+00
    -21.753  0.0000E+00  0.0000E+00  0.0000E+00  0.0000E+00  0.0000E+00  0.0000E+00  0.0000E+00  0.0000E+00  0.0000E+00
    -21.510  0.0000E+00  0.0000E+00  0.0000E+00  0.0000E+00  0.0000E+00  0.0000E+00  0.0000E+00  0.0000E+00  0.0000E+00
    -21.268  0.0000E+00  0.0000E+00  0.0000E+00  0.0000E+00  0.0000E+00  0.0000E+00  0.0000E+00  0.0000E+00  0.0000E+00
    -21.025  0.0000E+00  0.0000E+00  0.0000E+00  0.0000E+00  0.0000E+00  0.0000E+00  0.0000E+00  0.0000E+00  0.0000E+00
    -20.782  0.0000E+00  0.0000E+00  0.0000E+00  0.0000E+00  0.0000E+00  0.0000E+00  0.0000E+00  0.0000E+00  0.0000E+00
    -20.540  0.0000E+00  0.0000E+00  0.0000E+00  0.0000E+00  0.0000E+00  0.0000E+00  0.0000E+00  0.0000E+00  0.0000E+00
    -20.297  0.0000E+00  0.0000E+00  0.0000E+00  0.0000E+00  0.0000E+00  0.0000E+00  0.0000E+00  0.0000E+00  0.0000E+00
    -20.054  0.0000E+00  0.0000E+00  0.0000E+00  0.0000E+00  0.0000E+00  0.0000E+00  0.0000E+00  0.0000E+00  0.0000E+00
    -19.812  0.0000E+00  0.0000E+00  0.0000E+00  0.0000E+00  0.0000E+00  0.0000E+00  0.0000E+00  0.0000E+00  0.0000E+00
    -19.569  0.0000E+00  0.0000E+00  0.0000E+00  0.0000E+00  0.0000E+00  0.0000E+00  0.0000E+00  0.0000E+00  0.0000E+00
    -19.326  0.0000E+00  0.0000E+00  0.0000E+00  0.0000E+00  0.0000E+00  0.0000E+00  0.0000E+00  0.0000E+00  0.0000E+00
    -19.084  0.0000E+00  0.0000E+00  0.0000E+00  0.0000E+00  0.0000E+00  0.0000E+00  0.0000E+00  0.0000E+00  0.0000E+00
    -18.841  0.0000E+00  0.0000E+00  0.0000E+00  0.0000E+00  0.0000E+00  0.0000E+00  0.0000E+00  0.0000E+00  0.0000E+00
    -18.598  0.1147E-15  0.4276E-34  0.8962E-34  0.1231E-34  0.0000E+00  0.0000E+00  0.0000E+00  0.0000E+00  0.0000E+00
    -18.356  0.0000E+00  0.0000E+00  0.0000E+00  0.0000E+00  0.0000E+00  0.0000E+00  0.0000E+00  0.0000E+00  0.0000E+00
    -18.113  0.0000E+00  0.0000E+00  0.0000E+00  0.0000E+00  0.0000E+00  0.0000E+00  0.0000E+00  0.0000E+00  0.0000E+00
    -17.870  0.0000E+00  0.0000E+00  0.0000E+00  0.0000E+00  0.0000E+00  0.0000E+00  0.0000E+00  0.0000E+00  0.0000E+00
    -17.628  0.0000E+00  0.0000E+00  0.0000E+00  0.0000E+00  0.0000E+00  0.0000E+00  0.0000E+00  0.0000E+00  0.0000E+00
    -17.385  0.0000E+00  0.0000E+00  0.0000E+00  0.0000E+00  0.0000E+00  0.0000E+00  0.0000E+00  0.0000E+00  0.0000E+00
    -17.143  0.0000E+00  0.0000E+00  0.0000E+00  0.0000E+00  0.0000E+00  0.0000E+00  0.0000E+00  0.0000E+00  0.0000E+00
    -16.900  0.0000E+00  0.0000E+00  0.0000E+00  0.0000E+00  0.0000E+00  0.0000E+00  0.0000E+00  0.0000E+00  0.0000E+00
    -16.657  0.0000E+00  0.0000E+00  0.0000E+00  0.0000E+00  0.0000E+00  0.0000E+00  0.0000E+00  0.0000E+00  0.0000E+00
    -16.415  0.0000E+00  0.0000E+00  0.0000E+00  0.0000E+00  0.0000E+00  0.0000E+00  0.0000E+00  0.0000E+00  0.0000E+00
    -16.172  0.0000E+00  0.0000E+00  0.0000E+00  0.0000E+00  0.0000E+00  0.0000E+00  0.0000E+00  0.0000E+00  0.0000E+00
    -15.929  0.0000E+00  0.0000E+00  0.0000E+00  0.0000E+00  0.0000E+00  0.0000E+00  0.0000E+00  0.0000E+00  0.0000E+00
    -15.687  0.0000E+00  0.0000E+00  0.0000E+00  0.0000E+00  0.0000E+00  0.0000E+00  0.0000E+00  0.0000E+00  0.0000E+00
    -15.444  0.0000E+00  0.0000E+00  0.0000E+00  0.0000E+00  0.0000E+00  0.0000E+00  0.0000E+00  0.0000E+00  0.0000E+00
    -15.201  0.0000E+00  0.0000E+00  0.0000E+00  0.0000E+00  0.0000E+00  0.0000E+00  0.0000E+00  0.0000E+00  0.0000E+00
    -14.959  0.0000E+00  0.0000E+00  0.0000E+00  0.0000E+00  0.0000E+00  0.0000E+00  0.0000E+00  0.0000E+00  0.0000E+00
    -14.716  0.0000E+00  0.0000E+00  0.0000E+00  0.0000E+00  0.0000E+00  0.0000E+00  0.0000E+00  0.0000E+00  0.0000E+00
    -14.473  0.0000E+00  0.0000E+00  0.0000E+00  0.0000E+00  0.0000E+00  0.0000E+00  0.0000E+00  0.0000E+00  0.0000E+00
    -14.231  0.0000E+00  0.0000E+00  0.0000E+00  0.0000E+00  0.0000E+00  0.0000E+00  0.0000E+00  0.0000E+00  0.0000E+00
    -13.988  0.0000E+00  0.0000E+00  0.0000E+00  0.0000E+00  0.0000E+00  0.0000E+00  0.0000E+00  0.0000E+00  0.0000E+00
    -13.745  0.0000E+00  0.0000E+00  0.0000E+00  0.0000E+00  0.0000E+00  0.0000E+00  0.0000E+00  0.0000E+00  0.0000E+00
    -13.503  0.0000E+00  0.0000E+00  0.0000E+00  0.0000E+00  0.0000E+00  0.0000E+00  0.0000E+00  0.0000E+00  0.0000E+00
    -13.260  0.0000E+00  0.0000E+00  0.0000E+00  0.0000E+00  0.0000E+00  0.0000E+00  0.0000E+00  0.0000E+00  0.0000E+00
    -13.017  0.0000E+00  0.0000E+00  0.0000E+00  0.0000E+00  0.0000E+00  0.0000E+00  0.0000E+00  0.0000E+00  0.0000E+00
    -12.775  0.0000E+00  0.0000E+00  0.0000E+00  0.0000E+00  0.0000E+00  0.0000E+00  0.0000E+00  0.0000E+00  0.0000E+00
    -12.532  0.0000E+00  0.0000E+00  0.0000E+00  0.0000E+00  0.0000E+00  0.0000E+00  0.0000E+00  0.0000E+00  0.0000E+00
    -12.290  0.0000E+00  0.0000E+00  0.0000E+00  0.0000E+00  0.0000E+00  0.0000E+00  0.0000E+00  0.0000E+00  0.0000E+00
    -12.047  0.0000E+00  0.0000E+00  0.0000E+00  0.0000E+00  0.0000E+00  0.0000E+00  0.0000E+00  0.0000E+00  0.0000E+00
    -11.804  0.0000E+00  0.0000E+00  0.0000E+00  0.0000E+00  0.0000E+00  0.0000E+00  0.0000E+00  0.0000E+00  0.0000E+00
    -11.562  0.0000E+00  0.0000E+00  0.0000E+00  0.0000E+00  0.0000E+00  0.0000E+00  0.0000E+00  0.0000E+00  0.0000E+00
    -11.319  0.0000E+00  0.0000E+00  0.0000E+00  0.0000E+00  0.0000E+00  0.0000E+00  0.0000E+00  0.0000E+00  0.0000E+00
    -11.076  0.0000E+00  0.0000E+00  0.0000E+00  0.0000E+00  0.0000E+00  0.0000E+00  0.0000E+00  0.0000E+00  0.0000E+00
    -10.834  0.0000E+00  0.0000E+00  0.0000E+00  0.0000E+00  0.0000E+00  0.0000E+00  0.0000E+00  0.0000E+00  0.0000E+00
    -10.591  0.0000E+00  0.0000E+00  0.0000E+00  0.0000E+00  0.0000E+00  0.0000E+00  0.0000E+00  0.0000E+00  0.0000E+00
    -10.348  0.0000E+00  0.0000E+00  0.0000E+00  0.0000E+00  0.0000E+00  0.0000E+00  0.0000E+00  0.0000E+00  0.0000E+00
    -10.106  0.0000E+00  0.0000E+00  0.0000E+00  0.0000E+00  0.0000E+00  0.0000E+00  0.0000E+00  0.0000E+00  0.0000E+00
     -9.863  0.0000E+00  0.0000E+00  0.0000E+00  0.0000E+00  0.0000E+00  0.0000E+00  0.0000E+00  0.0000E+00  0.0000E+00
     -9.620  0.0000E+00  0.0000E+00  0.0000E+00  0.0000E+00  0.0000E+00  0.0000E+00  0.0000E+00  0.0000E+00  0.0000E+00
     -9.378  0.0000E+00  0.0000E+00  0.0000E+00  0.0000E+00  0.0000E+00  0.0000E+00  0.0000E+00  0.0000E+00  0.0000E+00
     -9.135  0.0000E+00  0.0000E+00  0.0000E+00  0.0000E+00  0.0000E+00  0.0000E+00  0.0000E+00  0.0000E+00  0.0000E+00
     -8.892  0.0000E+00  0.0000E+00  0.0000E+00  0.0000E+00  0.0000E+00  0.0000E+00  0.0000E+00  0.0000E+00  0.0000E+00
     -8.650  0.0000E+00  0.0000E+00  0.0000E+00  0.0000E+00  0.0000E+00  0.0000E+00  0.0000E+00  0.0000E+00  0.0000E+00
     -8.407  0.0000E+00  0.0000E+00  0.0000E+00  0.0000E+00  0.0000E+00  0.0000E+00  0.0000E+00  0.0000E+00  0.0000E+00