    2    2  199    1
  0.8511081E+01  0.2887420E-09  0.2887420E-09  0.2887420E-09  0.5000000E-15
  1.000000000000000E-004
  CAR 
 unknown system                          
     10      1     12
 
  0.0000000E+00  0.0000000E+00  0.0000000E+00  0.1000000E+01
    1      -42.951637   1.000000
    2      -18.542328   1.000000
    3        1.400929   1.000000
    4        1.400929   1.000000
    5        1.400930   1.000000
    6        8.481606   0.000000
    7       22.246947   0.000000
    8       22.246947   0.000000
    9       22.247016   0.000000
   10       23.225537   0.000000
   11       23.225537   0.000000
   12       23.225634   0.000000
