       N       E                     dE             d eps       ncg     rms          rms(c)
DAV:   1     0.340124066875E+02    0.34012E+02   -0.60172E+03    24   0.806E+02
DAV:   2    -0.485709933253E+01   -0.38870E+02   -0.37800E+02    28   0.160E+02
DAV:   3    -0.566565794185E+01   -0.80856E+00   -0.80826E+00    40   0.222E+01
DAV:   4    -0.566681930062E+01   -0.11614E-02   -0.11614E-02    24   0.944E-01
DAV:   5    -0.566682638880E+01   -0.70882E-05   -0.70880E-05    36   0.514E-02    0.875E+00
RMM:   6    -0.340028917553E+01    0.22665E+01   -0.49736E+00    24   0.153E+01    0.264E+00
RMM:   7    -0.340049574509E+01   -0.20657E-03   -0.32741E-01    24   0.372E+00    0.179E+00
RMM:   8    -0.343439281314E+01   -0.33897E-01   -0.37034E-02    24   0.203E+00    0.182E-01
RMM:   9    -0.343353053148E+01    0.86228E-03   -0.54105E-03    25   0.531E-01    0.103E-01
RMM:  10    -0.343332275281E+01    0.20778E-03   -0.55132E-04    25   0.180E-01    0.116E-02
RMM:  11    -0.343332280330E+01   -0.50485E-07   -0.58840E-06    17   0.217E-02
   1 F= -.34333228E+01 E0= -.34333228E+01  d E =-.343332E+01
