 vasp.5.4.4.18Apr17-6-g9f103f2a35 (build Nov 08 2022 17:27:33) complex          
  
 executed on             LinuxIFC date 2022.11.22  17:13:44
 running on   16 total cores
 distrk:  each k-point on   16 cores,    1 groups
 distr:  one band on NCORES_PER_BAND=   4 cores,    4 groups


--------------------------------------------------------------------------------------------------------


 INCAR:
 POTCAR:    PAW_PBE Li_sv 10Sep2004               
 POTCAR:    PAW_PBE F 08Apr2002                   
 POTCAR:    PAW_PBE Li_sv 10Sep2004               
   VRHFIN =Li: 1s2s2p                                                           
   LEXCH  = PE                                                                  
   EATOM  =   202.7858 eV,   14.9043 Ry                                         
                                                                                
   TITEL  = PAW_PBE Li_sv 10Sep2004                                             
   LULTRA =        F    use ultrasoft PP ?                                      
   IUNSCR =        0    unscreen: 0-lin 1-nonlin 2-no                           
   RPACOR =    0.000    partial core radius                                     
   POMASS =    7.010; ZVAL   =    3.000    mass and valenz                      
   RCORE  =    1.700    outmost cutoff radius                                   
   RWIGS  =    2.050; RWIGS  =    1.085    wigner-seitz radius (au A)           
   ENMAX  =  499.034; ENMIN  =  374.276 eV                                      
   ICORE  =        2    local potential                                         
   LCOR   =        T    correct aug charges                                     
   LPAW   =        T    paw PP                                                  
   EAUG   =  628.945                                                            
   RMAX   =    1.732    core radius for proj-oper                               
   RAUG   =    1.300    factor for augmentation sphere                          
   RDEP   =    1.728    radius for radial grids                                 
   RDEPT  =    1.329    core radius for aug-charge                              
                                                                                
   Atomic configuration                                                         
    4 entries                                                                   
     n  l   j            E        occ.                                          
     1  0  0.50       -51.8549   2.0000                                         
     2  0  0.50        -2.8742   1.0000                                         
     2  1  0.50        -1.3606   0.0000                                         
     3  2  1.50        -1.3606   0.0000                                         
   Description                                                                  
     l       E           TYP  RCUT    TYP  RCUT                                 
     0    -51.8548813     23  1.400                                             
     0     -2.8742052     23  1.700                                             
     1     -1.3605826     23  1.400                                             
     2     -1.3605826     23  1.400                                             
  local pseudopotential read in
  atomic valenz-charges read in
  non local Contribution for L=           0  read in
    real space projection operators read in
  non local Contribution for L=           0  read in
    real space projection operators read in
  non local Contribution for L=           1  read in
    real space projection operators read in
    PAW grid and wavefunctions read in
 
   number of l-projection  operators is LMAX  =           3
   number of lm-projection operators is LMMAX =           5
 
 POTCAR:    PAW_PBE F 08Apr2002                   
   VRHFIN =F: s2p5                                                              
   LEXCH  = PE                                                                  
   EATOM  =   659.6475 eV,   48.4827 Ry                                         
                                                                                
   TITEL  = PAW_PBE F 08Apr2002                                                 
   LULTRA =        F    use ultrasoft PP ?                                      
   IUNSCR =        1    unscreen: 0-lin 1-nonlin 2-no                           
   RPACOR =    1.200    partial core radius                                     
   POMASS =   18.998; ZVAL   =    7.000    mass and valenz                      
   RCORE  =    1.520    outmost cutoff radius                                   
   RWIGS  =    1.500; RWIGS  =    0.794    wigner-seitz radius (au A)           
   ENMAX  =  400.000; ENMIN  =  300.000 eV                                      
   ICORE  =        2    local potential                                         
   LCOR   =        T    correct aug charges                                     
   LPAW   =        T    paw PP                                                  
   EAUG   =  613.614                                                            
   RMAX   =    1.555    core radius for proj-oper                               
   RAUG   =    1.300    factor for augmentation sphere                          
   RDEP   =    1.539    radius for radial grids                                 
   RDEPT  =    1.299    core radius for aug-charge                              
                                                                                
   Atomic configuration                                                         
    4 entries                                                                   
     n  l   j            E        occ.                                          
     1  0  0.50      -663.3661   2.0000                                         
     2  0  0.50       -29.8995   2.0000                                         
     2  1  0.50       -11.1114   5.0000                                         
     3  2  1.50       -10.8847   0.0000                                         
   Description                                                                  
     l       E           TYP  RCUT    TYP  RCUT                                 
     0    -29.8995018     23  1.200                                             
     0     -9.5240782     23  1.200                                             
     1    -11.1113914     23  1.520                                             
     1      1.3605826     23  1.520                                             
     2    -10.8846608      7  1.500                                             
  local pseudopotential read in
  partial core-charges read in
  partial kinetic energy density read in
  atomic valenz-charges read in
  non local Contribution for L=           0  read in
    real space projection operators read in
  non local Contribution for L=           0  read in
    real space projection operators read in
  non local Contribution for L=           1  read in
    real space projection operators read in
  non local Contribution for L=           1  read in
    real space projection operators read in
    PAW grid and wavefunctions read in
 
   number of l-projection  operators is LMAX  =           4
   number of lm-projection operators is LMMAX =           8
 

 ----------------------------------------------------------------------------- 
|                                                                             |
|  ADVICE TO THIS USER RUNNING 'VASP/VAMP'   (HEAR YOUR MASTER'S VOICE ...):  |
|                                                                             |
|      You have a (more or less) 'small supercell' and for smaller cells      |
|      it is recommended  to use the reciprocal-space projection scheme!      |
|      The real space optimization is not  efficient for small cells and it   |
|      is also less accurate ...                                              |
|      Therefore set LREAL=.FALSE. in the  INCAR file                         |
|                                                                             |
 ----------------------------------------------------------------------------- 

 Optimization of the real space projectors (new method)

 maximal supplied QI-value         = 22.11
 optimisation between [QCUT,QGAM] = [ 10.17, 20.34] = [ 28.97,115.86] Ry 
 Optimized for a Real-space Cutoff    1.23 Angstroem

   l    n(q)    QCUT    max X(q) W(low)/X(q) W(high)/X(q)  e(spline) 
   0      7    10.171    10.506    0.58E-04    0.20E-04    0.32E-07
   0      7    10.171     8.367    0.16E-03    0.22E-04    0.74E-07
   1      7    10.171     8.983    0.20E-03    0.70E-04    0.17E-06
 Optimization of the real space projectors (new method)

 maximal supplied QI-value         = 24.76
 optimisation between [QCUT,QGAM] = [ 10.15, 20.30] = [ 28.85,115.39] Ry 
 Optimized for a Real-space Cutoff    1.46 Angstroem

   l    n(q)    QCUT    max X(q) W(low)/X(q) W(high)/X(q)  e(spline) 
   0      9    10.150    14.049    0.16E-03    0.14E-03    0.30E-06
   0      9    10.150     8.945    0.22E-03    0.20E-03    0.38E-06
   1      8    10.150     7.086    0.14E-03    0.29E-03    0.31E-06
   1      8    10.150     6.747    0.12E-03    0.26E-03    0.29E-06
  PAW_PBE Li_sv 10Sep2004               :
 energy of atom  1       EATOM= -202.7858
 kinetic energy error for atom=    0.0926 (will be added to EATOM!!)
  PAW_PBE F 08Apr2002                   :
 energy of atom  2       EATOM= -659.6475
 kinetic energy error for atom=    0.1978 (will be added to EATOM!!)
 
 
 POSCAR: Li1 F1                                  
  positions in direct lattice
  No initial velocities read in
 exchange correlation table for  LEXCH =        8
   RHO(1)=    0.500       N(1)  =     2000
   RHO(2)=  100.500       N(2)  =     4000

 VTST: version 3.2, (02/03/18)

 CHAIN: initializing optimizer
 
 OPT: Using VASP Conjugate-Gradient optimizer
 CHAIN: Read ICHAIN            0
 
 POSCAR: Li1 F1                                  
  positions in direct lattice
  No initial velocities read in
 


--------------------------------------------------------------------------------------------------------


 ion  position               nearest neighbor table
   1  0.000  0.000  0.000-   2 2.04   2 2.04   2 2.04   2 2.04   2 2.04   2 2.04
   2  0.500  0.500  0.500-   1 2.04   1 2.04   1 2.04   1 2.04   1 2.04   1 2.04
 

IMPORTANT INFORMATION: All symmetrisations will be switched off!
NOSYMM: (Re-)initialisation of all symmetry stuff for point group C_1.

 
 
 KPOINTS: Default gamma                           

Automatic generation of k-mesh.
Space group operators:
 irot       det(A)        alpha          n_x          n_y          n_z        tau_x        tau_y        tau_z
    1     1.000000     0.000000     1.000000     0.000000     0.000000     0.000000     0.000000     0.000000
 
 Subroutine IBZKPT returns following result:
 ===========================================
 
 Found      1 irreducible k-points:
 
 Following reciprocal coordinates:
            Coordinates               Weight
  0.000000  0.000000  0.000000      1.000000
 
 Following cartesian coordinates:
            Coordinates               Weight
  0.000000  0.000000  0.000000      1.000000
 


--------------------------------------------------------------------------------------------------------




 Dimension of arrays:
   k-points           NKPTS =      1   k-points in BZ     NKDIM =      1   number of bands    NBANDS=     12
   number of dos      NEDOS =    301   number of ions     NIONS =      2
   non local maximal  LDIM  =      4   non local SUM 2l+1 LMDIM =      8
   total plane-waves  NPLWV =   8000
   max r-space proj   IRMAX =   6234   max aug-charges    IRDMAX=   6174
   dimension x,y,z NGX =    20 NGY =   20 NGZ =   20
   dimension x,y,z NGXF=    40 NGYF=   40 NGZF=   40
   support grid    NGXF=    40 NGYF=   40 NGZF=   40
   ions per type =               1   1
   NGX,Y,Z   is equivalent  to a cutoff of  11.52, 11.52, 11.52 a.u.
   NGXF,Y,Z  is equivalent  to a cutoff of  23.03, 23.03, 23.03 a.u.

 SYSTEM =  unknown system                          
 POSCAR =  Li1 F1                                  

 Startparameter for this run:
   NWRITE =      2    write-flag & timer
   PREC   = accura    normal or accurate (medium, high low for compatibility)
   ISTART =      0    job   : 0-new  1-cont  2-samecut
   ICHARG =      2    charge: 1-file 2-atom 10-const
   ISPIN  =      1    spin polarized calculation?
   LNONCOLLINEAR =      F non collinear calculations
   LSORBIT =      F    spin-orbit coupling
   INIWAV =      1    electr: 0-lowe 1-rand  2-diag
   LASPH  =      T    aspherical Exc in radial PAW
   METAGGA=      F    non-selfconsistent MetaGGA calc.

 Electronic Relaxation 1
   ENCUT  =  400.0 eV  29.40 Ry    5.42 a.u.   4.71  4.71  4.71*2*pi/ulx,y,z
   ENINI  =  400.0     initial cutoff
   ENAUG  =  800.0 eV  augmentation charge cutoff
   NELM   =     40;   NELMIN=  2; NELMDL= -5     # of ELM steps 
   EDIFF  = 0.1E-04   stopping-criterion for ELM
   LREAL  =      T    real-space projection
   NLSPLINE    = F    spline interpolate recip. space projectors
   LCOMPAT=      F    compatible to vasp.4.4
   GGA_COMPAT  = T    GGA compatible to vasp.4.4-vasp.4.6
   LMAXPAW     = -100 max onsite density
   LMAXMIX     =    2 max onsite mixed and CHGCAR
   VOSKOWN=      0    Vosko Wilk Nusair interpolation
   ROPT   =   -0.00025  -0.00025
 Ionic relaxation
   EDIFFG = -.3E-01   stopping-criterion for IOM
   NSW    =    199    number of steps for IOM
   NBLOCK =      1;   KBLOCK =    199    inner block; outer block 
   IBRION =      2    ionic relax: 0-MD 1-quasi-New 2-CG
   NFREE  =      1    steps in history (QN), initial steepest desc. (CG)
   ISIF   =      2    stress and relaxation
   IWAVPR =     11    prediction:  0-non 1-charg 2-wave 3-comb
   ISYM   =      0    0-nonsym 1-usesym 2-fastsym
   LCORR  =      T    Harris-Foulkes like correction to forces

   POTIM  = 0.5000    time-step for ionic-motion
   TEIN   =    0.0    initial temperature
   TEBEG  =    0.0;   TEEND  =   0.0 temperature during run
   SMASS  =  -3.00    Nose mass-parameter (am)
   estimated Nose-frequenzy (Omega)   =  0.10E-29 period in steps =****** mass=  -0.191E-27a.u.
   SCALEE = 1.0000    scale energy and forces
   NPACO  =    256;   APACO  = 16.0  distance and # of slots for P.C.
   PSTRESS=    0.0 pullay stress

  Mass of Ions in am
   POMASS =   7.01 19.00
  Ionic Valenz
   ZVAL   =   3.00  7.00
  Atomic Wigner-Seitz radii
   RWIGS  =  -1.00 -1.00
  virtual crystal weights 
   VCA    =   1.00  1.00
   NELECT =      10.0000    total number of electrons
   NUPDOWN=      -1.0000    fix difference up-down

 DOS related values:
   EMIN   =  10.00;   EMAX   =-10.00  energy-range for DOS
   EFERMI =   0.00
   ISMEAR =     0;   SIGMA  =   0.01  broadening in eV -4-tet -1-fermi 0-gaus

 Electronic relaxation 2 (details)
   IALGO  =     68    algorithm
   LDIAG  =      T    sub-space diagonalisation (order eigenvalues)
   LSUBROT=      F    optimize rotation matrix (better conditioning)
   TURBO    =      0    0=normal 1=particle mesh
   IRESTART =      0    0=no restart 2=restart with 2 vectors
   NREBOOT  =      0    no. of reboots
   NMIN     =      0    reboot dimension
   EREF     =   0.00    reference energy to select bands
   IMIX   =      4    mixing-type and parameters
     AMIX     =   0.40;   BMIX     =  1.00
     AMIX_MAG =   1.60;   BMIX_MAG =  1.00
     AMIN     =   0.10
     WC   =   100.;   INIMIX=   1;  MIXPRE=   1;  MAXMIX= -45

 Intra band minimization:
   WEIMIN = 0.0010     energy-eigenvalue tresh-hold
   EBREAK =  0.21E-06  absolut break condition
   DEPER  =   0.30     relativ break condition  

   TIME   =   0.40     timestep for ELM

  volume/ion in A,a.u.               =       8.51        57.44
  Fermi-wavevector in a.u.,A,eV,Ry     =   1.371103  2.591008 25.577893  1.879922
  Thomas-Fermi vector in A             =   2.496829
 
 Write flags
   LWAVE        =      T    write WAVECAR
   LDOWNSAMPLE  =      F    k-point downsampling of WAVECAR
   LCHARG       =      T    write CHGCAR
   LVTOT        =      F    write LOCPOT, total local potential
   LVHAR        =      F    write LOCPOT, Hartree potential only
   LELF         =      F    write electronic localiz. function (ELF)
   LORBIT       =     11    0 simple, 1 ext, 2 COOP (PROOUT), +10 PAW based schemes


 Dipole corrections
   LMONO  =      F    monopole corrections only (constant potential shift)
   LDIPOL =      F    correct potential (dipole corrections)
   IDIPOL =      0    1-x, 2-y, 3-z, 4-all directions 
   EPSILON=  1.0000000 bulk dielectric constant

 Exchange correlation treatment:
   GGA     =    PE    GGA type
   LEXCH   =     8    internal setting for exchange type
   VOSKOWN=      0    Vosko Wilk Nusair interpolation
   LHFCALC =     F    Hartree Fock is set to
   LHFONE  =     F    Hartree Fock one center treatment
   AEXX    =    0.0000 exact exchange contribution

 Linear response parameters
   LEPSILON=     F    determine dielectric tensor
   LRPA    =     F    only Hartree local field effects (RPA)
   LNABLA  =     F    use nabla operator in PAW spheres
   LVEL    =     F    velocity operator in full k-point grid
   LINTERFAST=   F  fast interpolation
   KINTER  =     0    interpolate to denser k-point grid
   CSHIFT  =0.1000    complex shift for real part using Kramers Kronig
   OMEGAMAX=  -1.0    maximum frequency
   DEG_THRESHOLD= 0.2000000E-02 threshold for treating states as degnerate
   RTIME   =   -0.100 relaxation time in fs
  (WPLASMAI=    0.000 imaginary part of plasma frequency in eV, 0.658/RTIME)
   DFIELD  = 0.0000000 0.0000000 0.0000000 field for delta impulse in time
 
 Orbital magnetization related:
   ORBITALMAG=     F  switch on orbital magnetization
   LCHIMAG   =     F  perturbation theory with respect to B field
   DQ        =  0.001000  dq finite difference perturbation B field
   LLRAUG    =     F  two centre corrections for induced B field



--------------------------------------------------------------------------------------------------------


 conjugate gradient relaxation of ions
 charge density and potential will be updated during run
 non-spin polarized calculation
 RMM-DIIS sequential band-by-band and
  variant of blocked Davidson during initial phase
 perform sub-space diagonalisation
    before iterative eigenvector-optimisation
 modified Broyden-mixing scheme, WC =      100.0
 initial mixing is a Kerker type mixing with AMIX =  0.4000 and BMIX =      1.0000
 Hartree-type preconditioning will be used
 using additional bands            7
 real space projection scheme for non local part
 use partial core corrections
 calculate Harris-corrections to forces 
   (improved forces if not selfconsistent)
 use gradient corrections 
 use of overlap-Matrix (Vanderbilt PP)
 Gauss-broadening in eV      SIGMA  =   0.01


--------------------------------------------------------------------------------------------------------


  energy-cutoff  :      400.00
  volume of cell :       17.02
      direct lattice vectors                 reciprocal lattice vectors
     0.000000000  2.041714000  2.041714000    -0.244892282  0.244892282  0.244892282
     2.041714000  0.000000000  2.041714000     0.244892282 -0.244892282  0.244892282
     2.041714000  2.041714000  0.000000000     0.244892282  0.244892282 -0.244892282

  length of vectors
     2.887419629  2.887419629  2.887419629     0.424165874  0.424165874  0.424165874


 
 k-points in units of 2pi/SCALE and weight: Default gamma                           
   0.00000000  0.00000000  0.00000000       1.000
 
 k-points in reciprocal lattice and weights: Default gamma                           
   0.00000000  0.00000000  0.00000000       1.000
 
 position of ions in fractional coordinates (direct lattice) 
   0.00000000  0.00000000  0.00000000
   0.50000000  0.50000000  0.50000000
 
 position of ions in cartesian coordinates  (Angst):
   0.00000000  0.00000000  0.00000000
   2.04171400  2.04171400  2.04171400
 


--------------------------------------------------------------------------------------------------------


 k-point  1 :   0.0000 0.0000 0.0000  plane waves:     331

 maximum and minimum number of plane-waves per node :        84       80

 maximum number of plane-waves:       331
 maximum index in each direction: 
   IXMAX=    4   IYMAX=    4   IZMAX=    4
   IXMIN=   -4   IYMIN=   -4   IZMIN=   -4


 real space projection operators:
  total allocation   :        510.84 KBytes
  max/ min on nodes  :        129.96        125.70


 parallel 3D FFT for wavefunctions:
    minimum data exchange during FFTs selected (reduces bandwidth)
 parallel 3D FFT for charge:
    minimum data exchange during FFTs selected (reduces bandwidth)


 total amount of memory used by VASP MPI-rank0    30958. kBytes
=======================================================================

   base      :      30000. kBytes
   nonlr-proj:        369. kBytes
   fftplans  :        222. kBytes
   grid      :        360. kBytes
   one-center:          3. kBytes
   wavefun   :          4. kBytes
 
     INWAV:  cpu time    0.0000: real time    0.0003
 Broyden mixing: mesh for mixing (old mesh)
   NGX =  9   NGY =  9   NGZ =  9
  (NGX  = 40   NGY  = 40   NGZ  = 40)
  gives a total of    729 points

 initial charge density was supplied:
 charge density of overlapping atoms calculated
 number of electron      10.0000000 magnetization 
 keeping initial charge density in first step


--------------------------------------------------------------------------------------------------------


 Maximum index for non-local projection operator         1520
 Maximum index for augmentation-charges          541 (set IRDMAX)


--------------------------------------------------------------------------------------------------------


 First call to EWALD:  gamma=   0.689
 Maximum number of real-space cells 3x 3x 3
 Maximum number of reciprocal cells 3x 3x 3

    FEWALD:  cpu time    0.0026: real time    0.0026


--------------------------------------- Iteration      1(   1)  ---------------------------------------


    POTLOK:  cpu time    0.0073: real time    0.0133
    SETDIJ:  cpu time    0.0453: real time    0.0453
     EDDAV:  cpu time    0.0162: real time    0.0395
       DOS:  cpu time    0.0002: real time    0.0011
    --------------------------------------------
      LOOP:  cpu time    0.0689: real time    0.0991

 eigenvalue-minimisations  :    24
 total energy-change (2. order) : 0.3401241E+02  (-0.6017162E+03)
 number of electron      10.0000000 magnetization 
 augmentation part       10.0000000 magnetization 

 Free energy of the ion-electron system (eV)
  ---------------------------------------------------
  alpha Z        PSCENC =        19.24755120
  Ewald energy   TEWEN  =      -549.57268052
  -Hartree energ DENC   =      -217.48188625
  -exchange      EXHF   =         0.00000000
  -V(xc)+E(xc)   XCENC  =        49.79844359
  PAW double counting   =       618.96943640     -639.47645653
  entropy T*S    EENTRO =        -0.00000000
  eigenvalues    EBANDS =      -109.61489706
  atomic energy  EATOM  =       862.14289585
  Solvation  Ediel_sol  =         0.00000000
  ---------------------------------------------------
  free energy    TOTEN  =        34.01240669 eV

  energy without entropy =       34.01240669  energy(sigma->0) =       34.01240669


--------------------------------------------------------------------------------------------------------




--------------------------------------- Iteration      1(   2)  ---------------------------------------


     EDDAV:  cpu time    0.0045: real time    0.0192
       DOS:  cpu time    0.0001: real time    0.0004
    --------------------------------------------
      LOOP:  cpu time    0.0046: real time    0.0196

 eigenvalue-minimisations  :    28
 total energy-change (2. order) :-0.3886951E+02  (-0.3779989E+02)
 number of electron      10.0000000 magnetization 
 augmentation part       10.0000000 magnetization 

 Free energy of the ion-electron system (eV)
  ---------------------------------------------------
  alpha Z        PSCENC =        19.24755120
  Ewald energy   TEWEN  =      -549.57268052
  -Hartree energ DENC   =      -217.48188625
  -exchange      EXHF   =         0.00000000
  -V(xc)+E(xc)   XCENC  =        49.79844359
  PAW double counting   =       618.96943640     -639.47645653
  entropy T*S    EENTRO =        -0.00000000
  eigenvalues    EBANDS =      -148.48440308
  atomic energy  EATOM  =       862.14289585
  Solvation  Ediel_sol  =         0.00000000
  ---------------------------------------------------
  free energy    TOTEN  =        -4.85709933 eV

  energy without entropy =       -4.85709933  energy(sigma->0) =       -4.85709933


--------------------------------------------------------------------------------------------------------




--------------------------------------- Iteration      1(   3)  ---------------------------------------


     EDDAV:  cpu time    0.0055: real time    0.0231
       DOS:  cpu time    0.0001: real time    0.0003
    --------------------------------------------
      LOOP:  cpu time    0.0056: real time    0.0234

 eigenvalue-minimisations  :    40
 total energy-change (2. order) :-0.8085586E+00  (-0.8082568E+00)
 number of electron      10.0000000 magnetization 
 augmentation part       10.0000000 magnetization 

 Free energy of the ion-electron system (eV)
  ---------------------------------------------------
  alpha Z        PSCENC =        19.24755120
  Ewald energy   TEWEN  =      -549.57268052
  -Hartree energ DENC   =      -217.48188625
  -exchange      EXHF   =         0.00000000
  -V(xc)+E(xc)   XCENC  =        49.79844359
  PAW double counting   =       618.96943640     -639.47645653
  entropy T*S    EENTRO =        -0.00000000
  eigenvalues    EBANDS =      -149.29296169
  atomic energy  EATOM  =       862.14289585
  Solvation  Ediel_sol  =         0.00000000
  ---------------------------------------------------
  free energy    TOTEN  =        -5.66565794 eV

  energy without entropy =       -5.66565794  energy(sigma->0) =       -5.66565794


--------------------------------------------------------------------------------------------------------




--------------------------------------- Iteration      1(   4)  ---------------------------------------


     EDDAV:  cpu time    0.0037: real time    0.0153
       DOS:  cpu time    0.0001: real time    0.0024
    --------------------------------------------
      LOOP:  cpu time    0.0038: real time    0.0177

 eigenvalue-minimisations  :    24
 total energy-change (2. order) :-0.1161359E-02  (-0.1161357E-02)
 number of electron      10.0000000 magnetization 
 augmentation part       10.0000000 magnetization 

 Free energy of the ion-electron system (eV)
  ---------------------------------------------------
  alpha Z        PSCENC =        19.24755120
  Ewald energy   TEWEN  =      -549.57268052
  -Hartree energ DENC   =      -217.48188625
  -exchange      EXHF   =         0.00000000
  -V(xc)+E(xc)   XCENC  =        49.79844359
  PAW double counting   =       618.96943640     -639.47645653
  entropy T*S    EENTRO =        -0.00000000
  eigenvalues    EBANDS =      -149.29412305
  atomic energy  EATOM  =       862.14289585
  Solvation  Ediel_sol  =         0.00000000
  ---------------------------------------------------
  free energy    TOTEN  =        -5.66681930 eV

  energy without entropy =       -5.66681930  energy(sigma->0) =       -5.66681930


--------------------------------------------------------------------------------------------------------




--------------------------------------- Iteration      1(   5)  ---------------------------------------


     EDDAV:  cpu time    0.0055: real time    0.0212
       DOS:  cpu time    0.0001: real time    0.0003
    CHARGE:  cpu time    0.0006: real time    0.0026
    MIXING:  cpu time    0.0002: real time    0.0010
    --------------------------------------------
      LOOP:  cpu time    0.0064: real time    0.0251

 eigenvalue-minimisations  :    36
 total energy-change (2. order) :-0.7088190E-05  (-0.7088011E-05)
 number of electron      10.0000016 magnetization 
 augmentation part        2.6650104 magnetization 

 Broyden mixing:
  rms(total) = 0.87521E+00    rms(broyden)= 0.87330E+00
  rms(prec ) = 0.31541E+01
  weight for this iteration     100.00

 Free energy of the ion-electron system (eV)
  ---------------------------------------------------
  alpha Z        PSCENC =        19.24755120
  Ewald energy   TEWEN  =      -549.57268052
  -Hartree energ DENC   =      -217.48188625
  -exchange      EXHF   =         0.00000000
  -V(xc)+E(xc)   XCENC  =        49.79844359
  PAW double counting   =       618.96943640     -639.47645653
  entropy T*S    EENTRO =        -0.00000000
  eigenvalues    EBANDS =      -149.29413013
  atomic energy  EATOM  =       862.14289585
  Solvation  Ediel_sol  =         0.00000000
  ---------------------------------------------------
  free energy    TOTEN  =        -5.66682639 eV

  energy without entropy =       -5.66682639  energy(sigma->0) =       -5.66682639


--------------------------------------------------------------------------------------------------------




--------------------------------------- Iteration      1(   6)  ---------------------------------------


    POTLOK:  cpu time    0.0028: real time    0.0112
    SETDIJ:  cpu time    0.0108: real time    0.0460
    EDDIAG:  cpu time    0.0012: real time    0.0047
  RMM-DIIS:  cpu time    0.0017: real time    0.0068
    ORTHCH:  cpu time    0.0001: real time    0.0005
       DOS:  cpu time    0.0001: real time    0.0003
    CHARGE:  cpu time    0.0004: real time    0.0015
    MIXING:  cpu time    0.0003: real time    0.0012
    --------------------------------------------
      LOOP:  cpu time    0.0174: real time    0.0721

 eigenvalue-minimisations  :    24
 total energy-change (2. order) : 0.2266537E+01  (-0.4973643E+00)
 number of electron      10.0000014 magnetization 
 augmentation part        2.5205872 magnetization 

 Broyden mixing:
  rms(total) = 0.26414E+00    rms(broyden)= 0.26388E+00
  rms(prec ) = 0.95135E+00
  weight for this iteration     100.00

 eigenvalues of (default mixing * dielectric matrix)
  average eigenvalue GAMMA=   1.0543
  1.0543

 Free energy of the ion-electron system (eV)
  ---------------------------------------------------
  alpha Z        PSCENC =        19.24755120
  Ewald energy   TEWEN  =      -549.57268052
  -Hartree energ DENC   =      -242.03903356
  -exchange      EXHF   =         0.00000000
  -V(xc)+E(xc)   XCENC  =        51.38381047
  PAW double counting   =       695.39690675     -717.35203899
  entropy T*S    EENTRO =        -0.00000000
  eigenvalues    EBANDS =      -122.60770036
  atomic energy  EATOM  =       862.14289585
  Solvation  Ediel_sol  =         0.00000000
  ---------------------------------------------------
  free energy    TOTEN  =        -3.40028918 eV

  energy without entropy =       -3.40028918  energy(sigma->0) =       -3.40028918


--------------------------------------------------------------------------------------------------------




--------------------------------------- Iteration      1(   7)  ---------------------------------------


    POTLOK:  cpu time    0.0026: real time    0.0091
    SETDIJ:  cpu time    0.0133: real time    0.0450
    EDDIAG:  cpu time    0.0010: real time    0.0035
  RMM-DIIS:  cpu time    0.0013: real time    0.0046
    ORTHCH:  cpu time    0.0001: real time    0.0003
       DOS:  cpu time    0.0001: real time    0.0003
    CHARGE:  cpu time    0.0004: real time    0.0014
    MIXING:  cpu time    0.0002: real time    0.0007
    --------------------------------------------
      LOOP:  cpu time    0.0191: real time    0.0648

 eigenvalue-minimisations  :    24
 total energy-change (2. order) :-0.2065696E-03  (-0.3274110E-01)
 number of electron      10.0000014 magnetization 
 augmentation part        2.4811986 magnetization 

 Broyden mixing:
  rms(total) = 0.17871E+00    rms(broyden)= 0.17862E+00
  rms(prec ) = 0.44871E+00
  weight for this iteration     100.00

 eigenvalues of (default mixing * dielectric matrix)
  average eigenvalue GAMMA=   1.8297
  1.2739  2.3854

 Free energy of the ion-electron system (eV)
  ---------------------------------------------------
  alpha Z        PSCENC =        19.24755120
  Ewald energy   TEWEN  =      -549.57268052
  -Hartree energ DENC   =      -248.95326398
  -exchange      EXHF   =         0.00000000
  -V(xc)+E(xc)   XCENC  =        51.83513296
  PAW double counting   =       746.77843050     -769.15499494
  entropy T*S    EENTRO =        -0.00000000
  eigenvalues    EBANDS =      -115.72356680
  atomic energy  EATOM  =       862.14289585
  Solvation  Ediel_sol  =         0.00000000
  ---------------------------------------------------
  free energy    TOTEN  =        -3.40049575 eV

  energy without entropy =       -3.40049575  energy(sigma->0) =       -3.40049575


--------------------------------------------------------------------------------------------------------




--------------------------------------- Iteration      1(   8)  ---------------------------------------


    POTLOK:  cpu time    0.0024: real time    0.0078
    SETDIJ:  cpu time    0.0145: real time    0.0451
    EDDIAG:  cpu time    0.0011: real time    0.0032
  RMM-DIIS:  cpu time    0.0013: real time    0.0037
    ORTHCH:  cpu time    0.0001: real time    0.0006
       DOS:  cpu time    0.0001: real time    0.0003
    CHARGE:  cpu time    0.0003: real time    0.0010
    MIXING:  cpu time    0.0002: real time    0.0007
    --------------------------------------------
      LOOP:  cpu time    0.0199: real time    0.0623

 eigenvalue-minimisations  :    24
 total energy-change (2. order) :-0.3389707E-01  (-0.3703445E-02)
 number of electron      10.0000014 magnetization 
 augmentation part        2.4827887 magnetization 

 Broyden mixing:
  rms(total) = 0.18168E-01    rms(broyden)= 0.18150E-01
  rms(prec ) = 0.56676E-01
  weight for this iteration     100.00

 eigenvalues of (default mixing * dielectric matrix)
  average eigenvalue GAMMA=   1.8128
  2.6758  1.3813  1.3813

 Free energy of the ion-electron system (eV)
  ---------------------------------------------------
  alpha Z        PSCENC =        19.24755120
  Ewald energy   TEWEN  =      -549.57268052
  -Hartree energ DENC   =      -249.55909937
  -exchange      EXHF   =         0.00000000
  -V(xc)+E(xc)   XCENC  =        51.98054889
  PAW double counting   =       792.27860027     -814.78379380
  entropy T*S    EENTRO =        -0.00000000
  eigenvalues    EBANDS =      -115.16841533
  atomic energy  EATOM  =       862.14289585
  Solvation  Ediel_sol  =         0.00000000
  ---------------------------------------------------
  free energy    TOTEN  =        -3.43439281 eV

  energy without entropy =       -3.43439281  energy(sigma->0) =       -3.43439281


--------------------------------------------------------------------------------------------------------




--------------------------------------- Iteration      1(   9)  ---------------------------------------


    POTLOK:  cpu time    0.0023: real time    0.0061
    SETDIJ:  cpu time    0.0224: real time    0.0449
    EDDIAG:  cpu time    0.0018: real time    0.0036
  RMM-DIIS:  cpu time    0.0019: real time    0.0038
    ORTHCH:  cpu time    0.0001: real time    0.0003
       DOS:  cpu time    0.0001: real time    0.0001
    CHARGE:  cpu time    0.0004: real time    0.0008
    MIXING:  cpu time    0.0003: real time    0.0005
    --------------------------------------------
      LOOP:  cpu time    0.0293: real time    0.0601

 eigenvalue-minimisations  :    25
 total energy-change (2. order) : 0.8622817E-03  (-0.5410518E-03)
 number of electron      10.0000014 magnetization 
 augmentation part        2.4764869 magnetization 

 Broyden mixing:
  rms(total) = 0.10293E-01    rms(broyden)= 0.10257E-01
  rms(prec ) = 0.33038E-01
  weight for this iteration     100.00

 eigenvalues of (default mixing * dielectric matrix)
  average eigenvalue GAMMA=   1.8656
  2.6463  2.6463  1.0080  1.1619

 Free energy of the ion-electron system (eV)
  ---------------------------------------------------
  alpha Z        PSCENC =        19.24755120
  Ewald energy   TEWEN  =      -549.57268052
  -Hartree energ DENC   =      -250.43208291
  -exchange      EXHF   =         0.00000000
  -V(xc)+E(xc)   XCENC  =        52.05421363
  PAW double counting   =       793.01474214     -815.59943119
  entropy T*S    EENTRO =        -0.00000000
  eigenvalues    EBANDS =      -114.28873873
  atomic energy  EATOM  =       862.14289585
  Solvation  Ediel_sol  =         0.00000000
  ---------------------------------------------------
  free energy    TOTEN  =        -3.43353053 eV

  energy without entropy =       -3.43353053  energy(sigma->0) =       -3.43353053


--------------------------------------------------------------------------------------------------------




--------------------------------------- Iteration      1(  10)  ---------------------------------------


    POTLOK:  cpu time    0.0025: real time    0.0049
    SETDIJ:  cpu time    0.0223: real time    0.0446
    EDDIAG:  cpu time    0.0014: real time    0.0027
  RMM-DIIS:  cpu time    0.0015: real time    0.0030
    ORTHCH:  cpu time    0.0002: real time    0.0003
       DOS:  cpu time    0.0001: real time    0.0001
    CHARGE:  cpu time    0.0005: real time    0.0009
    MIXING:  cpu time    0.0004: real time    0.0009
    --------------------------------------------
      LOOP:  cpu time    0.0287: real time    0.0575

 eigenvalue-minimisations  :    25
 total energy-change (2. order) : 0.2077787E-03  (-0.5513152E-04)
 number of electron      10.0000014 magnetization 
 augmentation part        2.4781018 magnetization 

 Broyden mixing:
  rms(total) = 0.11553E-02    rms(broyden)= 0.11499E-02
  rms(prec ) = 0.22892E-02
  weight for this iteration     100.00

 eigenvalues of (default mixing * dielectric matrix)
  average eigenvalue GAMMA=   1.7142
  2.7125  2.4532  1.2578  1.0739  1.0739

 Free energy of the ion-electron system (eV)
  ---------------------------------------------------
  alpha Z        PSCENC =        19.24755120
  Ewald energy   TEWEN  =      -549.57268052
  -Hartree energ DENC   =      -250.09725080
  -exchange      EXHF   =         0.00000000
  -V(xc)+E(xc)   XCENC  =        52.03317361
  PAW double counting   =       788.13291201     -810.72829649
  entropy T*S    EENTRO =        -0.00000000
  eigenvalues    EBANDS =      -114.59162760
  atomic energy  EATOM  =       862.14289585
  Solvation  Ediel_sol  =         0.00000000
  ---------------------------------------------------
  free energy    TOTEN  =        -3.43332275 eV

  energy without entropy =       -3.43332275  energy(sigma->0) =       -3.43332275


--------------------------------------------------------------------------------------------------------




--------------------------------------- Iteration      1(  11)  ---------------------------------------


    POTLOK:  cpu time    0.0024: real time    0.0049
    SETDIJ:  cpu time    0.0224: real time    0.0447
    EDDIAG:  cpu time    0.0013: real time    0.0026
  RMM-DIIS:  cpu time    0.0011: real time    0.0021
    ORTHCH:  cpu time    0.0001: real time    0.0003
       DOS:  cpu time    0.0001: real time    0.0001
    --------------------------------------------
      LOOP:  cpu time    0.0273: real time    0.0547

 eigenvalue-minimisations  :    17
 total energy-change (2. order) :-0.5048548E-07  (-0.5883971E-06)
 number of electron      10.0000014 magnetization 
 augmentation part        2.4781018 magnetization 

 Free energy of the ion-electron system (eV)
  ---------------------------------------------------
  alpha Z        PSCENC =        19.24755120
  Ewald energy   TEWEN  =      -549.57268052
  -Hartree energ DENC   =      -250.10895301
  -exchange      EXHF   =         0.00000000
  -V(xc)+E(xc)   XCENC  =        52.03473967
  PAW double counting   =       788.75016774     -811.34468718
  entropy T*S    EENTRO =        -0.00000000
  eigenvalues    EBANDS =      -114.58235656
  atomic energy  EATOM  =       862.14289585
  Solvation  Ediel_sol  =         0.00000000
  ---------------------------------------------------
  free energy    TOTEN  =        -3.43332280 eV

  energy without entropy =       -3.43332280  energy(sigma->0) =       -3.43332280


--------------------------------------------------------------------------------------------------------




 average (electrostatic) potential at core
  the test charge radii are     0.7079  0.7167
  (the norm of the test charge is              1.0000)
       1 -61.9936       2 -72.9398
 
 
 
 E-fermi :   1.6022     XC(G=0):  -9.2528     alpha+bet :-12.5784


 k-point     1 :       0.0000    0.0000    0.0000
  band No.  band energies     occupation 
      1     -42.9516      2.00000
      2     -18.5423      2.00000
      3       1.4009      2.00000
      4       1.4009      2.00000
      5       1.4009      2.00000
      6       8.4816      0.00000
      7      22.2469      0.00000
      8      22.2469      0.00000
      9      22.2470      0.00000
     10      23.2255      0.00000
     11      23.2255      0.00000
     12      23.2256      0.00000


--------------------------------------------------------------------------------------------------------


 soft charge-density along one line, spin component           1
         0         1         2         3         4         5         6         7         8         9
 total charge-density along one line
 
 pseudopotential strength for first ion, spin component:           1
-39.115   3.268  -0.000  -0.000  -0.000
  3.268  -9.656   0.000  -0.000  -0.000
 -0.000   0.000   0.206   0.000   0.000
 -0.000  -0.000   0.000   0.206   0.000
 -0.000  -0.000   0.000   0.000   0.206
 total augmentation occupancy for first ion, spin component:           1
  1.998  -0.019  -0.000  -0.000  -0.000
 -0.019   0.302  -0.000  -0.000  -0.000
 -0.000  -0.000   0.024   0.000   0.000
 -0.000  -0.000   0.000   0.024   0.000
 -0.000  -0.000   0.000   0.000   0.024


------------------------ aborting loop because EDIFF is reached ----------------------------------------


 


 total charge     
 
# of ion       s       p       d       tot
------------------------------------------
    1        1.997   0.051   0.000   2.049
    2        1.639   4.810   0.000   6.449
--------------------------------------------------
tot          3.636   4.861   0.000   8.498
 
    CHARGE:  cpu time    0.0038: real time    0.0078
    FORLOC:  cpu time    0.0001: real time    0.0007
    FORNL :  cpu time    0.0020: real time    0.0035
    STRESS:  cpu time    0.0058: real time    0.0116
    FORCOR:  cpu time    0.0020: real time    0.0040
    FORHAR:  cpu time    0.0006: real time    0.0011
    MIXING:  cpu time    0.0002: real time    0.0005
    OFIELD:  cpu time    0.0000: real time    0.0000

  FORCE on cell =-STRESS in cart. coord.  units (eV):
  Direction    XX          YY          ZZ          XY          YZ          ZX
  --------------------------------------------------------------------------------------
  Alpha Z    19.24755    19.24755    19.24755
  Ewald    -183.19094  -183.19094  -183.19094     0.00000     0.00000    -0.00000
  Hartree    83.36692    83.36692    83.36692    -0.00001    -0.00001    -0.00001
  E(xc)     -55.70959   -55.70959   -55.70959     0.00002     0.00002     0.00002
  Local     -47.25340   -47.25340   -47.25340    -0.00000    -0.00000    -0.00000
  n-local   -53.71239   -53.71239   -53.71239     0.00002     0.00002     0.00002
  augment    38.70787    38.70787    38.70787    -0.00001    -0.00001    -0.00001
  Kinetic   205.51760   205.51760   205.51760     0.00006     0.00006     0.00006
  Fock        0.00000     0.00000     0.00000     0.00000     0.00000     0.00000
  -------------------------------------------------------------------------------------
  Total       6.97362     6.97362     6.97362     0.00008     0.00008     0.00008
  in kB     656.37862   656.37863   656.37863     0.00738     0.00738     0.00738
  external pressure =      656.38 kB  Pullay stress =        0.00 kB


 VOLUME and BASIS-vectors are now :
 -----------------------------------------------------------------------------
  energy-cutoff  :      400.00
  volume of cell :       17.02
      direct lattice vectors                 reciprocal lattice vectors
     0.000000000  2.041714000  2.041714000    -0.244892282  0.244892282  0.244892282
     2.041714000  0.000000000  2.041714000     0.244892282 -0.244892282  0.244892282
     2.041714000  2.041714000  0.000000000     0.244892282  0.244892282 -0.244892282

  length of vectors
     2.887419629  2.887419629  2.887419629     0.424165874  0.424165874  0.424165874


 FORCES acting on ions
    electron-ion (+dipol)            ewald-force                    non-local-force                 convergence-correction
 -----------------------------------------------------------------------------------------------
   -.753E-08 -.161E-07 0.134E-07   -.146E-14 -.175E-14 0.580E-15   -.443E-08 -.432E-07 0.911E-08   -.743E-08 0.658E-07 -.750E-08
   -.188E-06 -.689E-06 -.161E-05   0.991E-15 0.158E-14 -.576E-15   -.109E-06 -.327E-06 -.835E-06   0.242E-06 0.876E-06 0.209E-05
 -----------------------------------------------------------------------------------------------
   -.195E-06 -.705E-06 -.159E-05   -.465E-15 -.168E-15 0.326E-17   -.113E-06 -.370E-06 -.826E-06   0.235E-06 0.942E-06 0.208E-05
 
 
 POSITION                                       TOTAL-FORCE (eV/Angst)
 -----------------------------------------------------------------------------------
      0.00000      0.00000      0.00000         0.000000      0.000000      0.000000
      2.04171      2.04171      2.04171        -0.000000     -0.000000     -0.000000
 -----------------------------------------------------------------------------------
    total drift:                               -0.000000     -0.000000     -0.000000


--------------------------------------------------------------------------------------------------------



  FREE ENERGIE OF THE ION-ELECTRON SYSTEM (eV)
  ---------------------------------------------------
  free  energy   TOTEN  =        -3.43332280 eV

  energy  without entropy=       -3.43332280  energy(sigma->0) =       -3.43332280
 


--------------------------------------------------------------------------------------------------------


    POTLOK:  cpu time    0.0248: real time    0.0497


--------------------------------------------------------------------------------------------------------


 stress matrix after NEB project (eV)
      6.97362      0.00008      0.00008
      0.00008      6.97362      0.00008
      0.00008      0.00008      6.97362
  FORCES: max atom, RMS     0.000000    0.000000
  FORCE total and by dimension    0.000000    0.000000
  Stress total and by dimension   12.078672    6.973625


--------------------------------------------------------------------------------------------------------


  
 reached required accuracy - stopping structural energy minimisation
 writing wavefunctions
     LOOP+:  cpu time    0.3707: real time    0.8608
    4ORBIT:  cpu time    0.0000: real time    0.0000
 


 total charge     
 
# of ion       s       p       d       tot
------------------------------------------
    1        1.997   0.051   0.000   2.049
    2        1.639   4.810   0.000   6.449
--------------------------------------------------
tot          3.636   4.861   0.000   8.498
 

 total amount of memory used by VASP MPI-rank0    30958. kBytes
=======================================================================

   base      :      30000. kBytes
   nonlr-proj:        369. kBytes
   fftplans  :        222. kBytes
   grid      :        360. kBytes
   one-center:          3. kBytes
   wavefun   :          4. kBytes
 
  
  
 General timing and accounting informations for this job:
 ========================================================
  
                  Total CPU time used (sec):        1.250
                            User time (sec):        1.002
                          System time (sec):        0.248
                         Elapsed time (sec):        2.216
  
                   Maximum memory used (kb):       43264.
                   Average memory used (kb):           0.
  
                          Minor page faults:         8655
                          Major page faults:            0
                 Voluntary context switches:          196
