PROCAR lm decomposed
# of k-points:    1         # of bands:   12         # of ions:    2

 k-point     1 :    0.00000000 0.00000000 0.00000000     weight = 1.00000000

band     1 # energy  -42.95163735 # occ.  2.00000000
 
ion      s     py     pz     px    dxy    dyz    dz2    dxz  x2-y2    tot
    1  0.986  0.000  0.000  0.000  0.000  0.000  0.000  0.000  0.000  0.986
    2  0.001  0.000  0.000  0.000  0.000  0.000  0.000  0.000  0.000  0.001
tot    0.987  0.000  0.000  0.000  0.000  0.000  0.000  0.000  0.000  0.987
 
band     2 # energy  -18.54232831 # occ.  2.00000000
 
ion      s     py     pz     px    dxy    dyz    dz2    dxz  x2-y2    tot
    1  0.013  0.000  0.000  0.000  0.000  0.000  0.000  0.000  0.000  0.013
    2  0.819  0.000  0.000  0.000  0.000  0.000  0.000  0.000  0.000  0.819
tot    0.831  0.000  0.000  0.000  0.000  0.000  0.000  0.000  0.000  0.831
 
band     3 # energy    1.40092868 # occ.  2.00000000
 
ion      s     py     pz     px    dxy    dyz    dz2    dxz  x2-y2    tot
    1  0.000  0.006  0.002  0.001  0.000  0.000  0.000  0.000  0.000  0.009
    2  0.000  0.534  0.142  0.126  0.000  0.000  0.000  0.000  0.000  0.802
tot    0.000  0.540  0.144  0.127  0.000  0.000  0.000  0.000  0.000  0.810
 
band     4 # energy    1.40092868 # occ.  2.00000000
 
ion      s     py     pz     px    dxy    dyz    dz2    dxz  x2-y2    tot
    1  0.000  0.000  0.004  0.004  0.000  0.000  0.000  0.000  0.000  0.009
    2  0.000  0.000  0.393  0.409  0.000  0.000  0.000  0.000  0.000  0.802
tot    0.000  0.000  0.397  0.413  0.000  0.000  0.000  0.000  0.000  0.810
 
band     5 # energy    1.40093002 # occ.  2.00000000
 
ion      s     py     pz     px    dxy    dyz    dz2    dxz  x2-y2    tot
    1  0.000  0.003  0.003  0.003  0.000  0.000  0.000  0.000  0.000  0.009
    2  0.000  0.267  0.267  0.267  0.000  0.000  0.000  0.000  0.000  0.802
tot    0.000  0.270  0.270  0.270  0.000  0.000  0.000  0.000  0.000  0.810
 
band     6 # energy    8.48160568 # occ.  0.00000000
 
ion      s     py     pz     px    dxy    dyz    dz2    dxz  x2-y2    tot
    1  0.147  0.000  0.000  0.000  0.000  0.000  0.000  0.000  0.000  0.147
    2  0.172  0.000  0.000  0.000  0.000  0.000  0.000  0.000  0.000  0.172
tot    0.319  0.000  0.000  0.000  0.000  0.000  0.000  0.000  0.000  0.319
 
band     7 # energy   22.24694683 # occ.  0.00000000
 
ion      s     py     pz     px    dxy    dyz    dz2    dxz  x2-y2    tot
    1  0.000  0.208  0.354  0.545  0.000  0.000  0.000  0.000  0.000  1.107
    2  0.000  0.009  0.015  0.023  0.000  0.000  0.000  0.000  0.000  0.048
tot    0.000  0.217  0.369  0.569  0.000  0.000  0.000  0.000  0.000  1.155
 
band     8 # energy   22.24694683 # occ.  0.00000000
 
ion      s     py     pz     px    dxy    dyz    dz2    dxz  x2-y2    tot
    1  0.000  0.530  0.384  0.193  0.000  0.000  0.000  0.000  0.000  1.107
    2  0.000  0.023  0.017  0.008  0.000  0.000  0.000  0.000  0.000  0.048
tot    0.000  0.553  0.401  0.201  0.000  0.000  0.000  0.000  0.000  1.155
 
band     9 # energy   22.24701605 # occ.  0.00000000
 
ion      s     py     pz     px    dxy    dyz    dz2    dxz  x2-y2    tot
    1  0.000  0.369  0.369  0.369  0.000  0.000  0.000  0.000  0.000  1.107
    2  0.000  0.016  0.016  0.016  0.000  0.000  0.000  0.000  0.000  0.048
tot    0.000  0.385  0.385  0.385  0.000  0.000  0.000  0.000  0.000  1.155
 
band    10 # energy   23.22553744 # occ.  0.00000000
 
ion      s     py     pz     px    dxy    dyz    dz2    dxz  x2-y2    tot
    1  0.000  0.000  0.000  0.000  0.000  0.000  0.000  0.000  0.000  0.000
    2  0.000  0.000  0.000  0.000  0.000  0.000  0.000  0.000  0.000  0.000
tot    0.000  0.000  0.000  0.000  0.000  0.000  0.000  0.000  0.000  0.000
 
band    11 # energy   23.22553744 # occ.  0.00000000
 
ion      s     py     pz     px    dxy    dyz    dz2    dxz  x2-y2    tot
    1  0.000  0.000  0.000  0.000  0.000  0.000  0.000  0.000  0.000  0.000
    2  0.000  0.000  0.000  0.000  0.000  0.000  0.000  0.000  0.000  0.000
tot    0.000  0.000  0.000  0.000  0.000  0.000  0.000  0.000  0.000  0.000
 
band    12 # energy   23.22563358 # occ.  0.00000000
 
ion      s     py     pz     px    dxy    dyz    dz2    dxz  x2-y2    tot
    1  0.000  0.000  0.000  0.000  0.000  0.000  0.000  0.000  0.000  0.000
    2  0.000  0.000  0.000  0.000  0.000  0.000  0.000  0.000  0.000  0.000
tot    0.000  0.000  0.000  0.000  0.000  0.000  0.000  0.000  0.000  0.000
 
