unknown system                          
           1
     0.000000    2.041714    2.041714
     2.041714    0.000000    2.041714
     2.041714    2.041714    0.000000
   Li   F 
   1   1
Direct configuration=     1
   0.00000000  0.00000000  0.00000000
   0.50000000  0.50000000  0.50000000
