   2   2   0   0
  0.7890735E+01  0.2815383E-09  0.2815383E-09  0.2815383E-09  0.5000000E-15
  1.000000000000000E-004
  CAR 
 unknown system                          
     46.93760720    -47.72742073  301     -1.26266952      1.00000000
    -47.727  0.0000E+00  0.0000E+00
    -47.412  0.0000E+00  0.0000E+00
    -47.096  0.0000E+00  0.0000E+00
    -46.781  0.0000E+00  0.0000E+00
    -46.465  0.0000E+00  0.0000E+00
    -46.150  0.0000E+00  0.0000E+00
    -45.834  0.0000E+00  0.0000E+00
    -45.519  0.0000E+00  0.0000E+00
    -45.203  0.0000E+00  0.0000E+00
    -44.887  0.0000E+00  0.0000E+00
    -44.572  0.0000E+00  0.0000E+00
    -44.256  0.0000E+00  0.0000E+00
    -43.941  0.0000E+00  0.0000E+00
    -43.625  0.0000E+00  0.0000E+00
    -43.310  0.5816E+01  0.2000E+01
    -42.994  0.0000E+00  0.2000E+01
    -42.679  0.0000E+00  0.2000E+01
    -42.363  0.0000E+00  0.2000E+01
    -42.048  0.0000E+00  0.2000E+01
    -41.732  0.0000E+00  0.2000E+01
    -41.416  0.0000E+00  0.2000E+01
    -41.101  0.0000E+00  0.2000E+01
    -40.785  0.0000E+00  0.2000E+01
    -40.470  0.0000E+00  0.2000E+01
    -40.154  0.0000E+00  0.2000E+01
    -39.839  0.0000E+00  0.2000E+01
    -39.523  0.0000E+00  0.2000E+01
    -39.208  0.0000E+00  0.2000E+01
    -38.892  0.0000E+00  0.2000E+01
    -38.576  0.0000E+00  0.2000E+01
    -38.261  0.0000E+00  0.2000E+01
    -37.945  0.0000E+00  0.2000E+01
    -37.630  0.0000E+00  0.2000E+01
    -37.314  0.0000E+00  0.2000E+01
    -36.999  0.0000E+00  0.2000E+01
    -36.683  0.0000E+00  0.2000E+01
    -36.368  0.0000E+00  0.2000E+01
    -36.052  0.0000E+00  0.2000E+01
    -35.737  0.0000E+00  0.2000E+01
    -35.421  0.0000E+00  0.2000E+01
    -35.105  0.0000E+00  0.2000E+01
    -34.790  0.0000E+00  0.2000E+01
    -34.474  0.0000E+00  0.2000E+01
    -34.159  0.0000E+00  0.2000E+01
    -33.843  0.0000E+00  0.2000E+01
    -33.528  0.0000E+00  0.2000E+01
    -33.212  0.0000E+00  0.2000E+01
    -32.897  0.0000E+00  0.2000E+01
    -32.581  0.0000E+00  0.2000E+01
    -32.265  0.0000E+00  0.2000E+01
    -31.950  0.0000E+00  0.2000E+01
    -31.634  0.0000E+00  0.2000E+01
    -31.319  0.0000E+00  0.2000E+01
    -31.003  0.0000E+00  0.2000E+01
    -30.688  0.0000E+00  0.2000E+01
    -30.372  0.0000E+00  0.2000E+01
    -30.057  0.0000E+00  0.2000E+01
    -29.741  0.0000E+00  0.2000E+01
    -29.426  0.0000E+00  0.2000E+01
    -29.110  0.0000E+00  0.2000E+01
    -28.794  0.0000E+00  0.2000E+01
    -28.479  0.0000E+00  0.2000E+01
    -28.163  0.0000E+00  0.2000E+01
    -27.848  0.0000E+00  0.2000E+01
    -27.532  0.0000E+00  0.2000E+01
    -27.217  0.0000E+00  0.2000E+01
    -26.901  0.0000E+00  0.2000E+01
    -26.586  0.0000E+00  0.2000E+01
    -26.270  0.0000E+00  0.2000E+01
    -25.954  0.0000E+00  0.2000E+01
    -25.639  0.0000E+00  0.2000E+01
    -25.323  0.0000E+00  0.2000E+01
    -25.008  0.0000E+00  0.2000E+01
    -24.692  0.0000E+00  0.2000E+01
    -24.377  0.0000E+00  0.2000E+01
    -24.061  0.0000E+00  0.2000E+01
    -23.746  0.0000E+00  0.2000E+01
    -23.430  0.0000E+00  0.2000E+01
    -23.115  0.0000E+00  0.2000E+01
    -22.799  0.0000E+00  0.2000E+01
    -22.483  0.1704E+00  0.2067E+01
    -22.168  0.9104E+00  0.2727E+01
    -21.852  0.3981E+00  0.4000E+01
    -21.537  0.0000E+00  0.4000E+01
    -21.221  0.0000E+00  0.4000E+01
    -20.906  0.0000E+00  0.4000E+01
    -20.590  0.0000E+00  0.4000E+01
    -20.275  0.0000E+00  0.4000E+01
    -19.959  0.0000E+00  0.4000E+01
    -19.643  0.0000E+00  0.4000E+01
    -19.328  0.0000E+00  0.4000E+01
    -19.012  0.0000E+00  0.4000E+01
    -18.697  0.0000E+00  0.4000E+01
    -18.381  0.0000E+00  0.4000E+01
    -18.066  0.0000E+00  0.4000E+01
    -17.750  0.0000E+00  0.4000E+01
    -17.435  0.0000E+00  0.4000E+01
    -17.119  0.0000E+00  0.4000E+01
    -16.804  0.0000E+00  0.4000E+01
    -16.488  0.0000E+00  0.4000E+01
    -16.172  0.0000E+00  0.4000E+01
    -15.857  0.0000E+00  0.4000E+01
    -15.541  0.0000E+00  0.4000E+01
    -15.226  0.0000E+00  0.4000E+01
    -14.910  0.0000E+00  0.4000E+01
    -14.595  0.0000E+00  0.4000E+01
    -14.279  0.0000E+00  0.4000E+01
    -13.964  0.0000E+00  0.4000E+01
    -13.648  0.0000E+00  0.4000E+01
    -13.332  0.0000E+00  0.4000E+01
    -13.017  0.0000E+00  0.4000E+01
    -12.701  0.0000E+00  0.4000E+01
    -12.386  0.0000E+00  0.4000E+01
    -12.070  0.0000E+00  0.4000E+01
    -11.755  0.0000E+00  0.4000E+01
    -11.439  0.0000E+00  0.4000E+01
    -11.124  0.0000E+00  0.4000E+01
    -10.808  0.0000E+00  0.4000E+01
    -10.493  0.0000E+00  0.4000E+01
    -10.177  0.0000E+00  0.4000E+01
     -9.861  0.0000E+00  0.4000E+01
     -9.546  0.0000E+00  0.4000E+01
     -9.230  0.0000E+00  0.4000E+01
     -8.915  0.0000E+00  0.4000E+01
     -8.599  0.0000E+00  0.4000E+01
     -8.284  0.0000E+00  0.4000E+01
     -7.968  0.0000E+00  0.4000E+01
     -7.653  0.0000E+00  0.4000E+01
     -7.337  0.0000E+00  0.4000E+01
     -7.021  0.0000E+00  0.4000E+01
     -6.706  0.0000E+00  0.4000E+01
     -6.390  0.0000E+00  0.4000E+01
     -6.075  0.0000E+00  0.4000E+01
     -5.759  0.0000E+00  0.4000E+01
     -5.444  0.0000E+00  0.4000E+01
     -5.128  0.0000E+00  0.4000E+01
     -4.813  0.0000E+00  0.4000E+01
     -4.497  0.5193E-01  0.4016E+01
     -4.182  0.7692E-02  0.4106E+01
     -3.866  0.6543E+00  0.4552E+01
     -3.550  0.4157E+00  0.5293E+01
     -3.235  0.5282E+00  0.5771E+01
     -2.919  0.1731E+00  0.6179E+01
     -2.604  0.4276E+00  0.6691E+01
     -2.288  0.7184E+00  0.7325E+01
     -1.973  0.7988E+00  0.8418E+01
     -1.657  0.6920E+00  0.9504E+01
     -1.342  0.0000E+00  0.1000E+02
     -1.026  0.0000E+00  0.1000E+02
     -0.710  0.0000E+00  0.1000E+02
     -0.395  0.0000E+00  0.1000E+02
     -0.079  0.0000E+00  0.1000E+02
      0.236  0.0000E+00  0.1000E+02
      0.552  0.0000E+00  0.1000E+02
      0.867  0.0000E+00  0.1000E+02
      1.183  0.0000E+00  0.1000E+02
      1.498  0.0000E+00  0.1000E+02
      1.814  0.0000E+00  0.1000E+02
      2.129  0.0000E+00  0.1000E+02
      2.445  0.0000E+00  0.1000E+02
      2.761  0.0000E+00  0.1000E+02
      3.076  0.0000E+00  0.1000E+02
      3.392  0.0000E+00  0.1000E+02
      3.707  0.0000E+00  0.1000E+02
      4.023  0.0000E+00  0.1000E+02
      4.338  0.0000E+00  0.1000E+02
      4.654  0.0000E+00  0.1000E+02
      4.969  0.0000E+00  0.1000E+02
      5.285  0.0000E+00  0.1000E+02
      5.601  0.0000E+00  0.1000E+02
      5.916  0.0000E+00  0.1000E+02
      6.232  0.0000E+00  0.1000E+02
      6.547  0.0000E+00  0.1000E+02
      6.863  0.0000E+00  0.1000E+02
      7.178  0.0000E+00  0.1000E+02
      7.494  0.0000E+00  0.1000E+02
      7.809  0.0000E+00  0.1000E+02
      8.125  0.0000E+00  0.1000E+02
      8.440  0.0000E+00  0.1000E+02
      8.756  0.0000E+00  0.1000E+02
      9.072  0.0000E+00  0.1000E+02
      9.387  0.2308E-01  0.1001E+02
      9.703  0.0000E+00  0.1002E+02
     10.018  0.0000E+00  0.1005E+02
     10.334  0.9232E-01  0.1013E+02
     10.649  0.1454E+00  0.1021E+02
     10.965  0.2077E+00  0.1038E+02
     11.280  0.6924E-01  0.1050E+02
     11.596  0.1389E+00  0.1067E+02
     11.912  0.1385E+00  0.1084E+02
     12.227  0.3487E-01  0.1092E+02
     12.543  0.9149E-01  0.1111E+02
     12.858  0.0000E+00  0.1119E+02
     13.174  0.3198E+00  0.1139E+02
     13.489  0.0000E+00  0.1149E+02
     13.805  0.4463E-01  0.1159E+02
     14.120  0.6834E-08  0.1164E+02
     14.436  0.7648E-01  0.1180E+02
     14.751  0.6792E-01  0.1187E+02
     15.067  0.2127E+00  0.1202E+02
     15.383  0.6926E-01  0.1222E+02
     15.698  0.1205E+00  0.1252E+02
     16.014  0.3715E+00  0.1284E+02
     16.329  0.3611E+00  0.1315E+02
     16.645  0.1385E+00  0.1332E+02
     16.960  0.3537E+00  0.1350E+02
     17.276  0.0000E+00  0.1366E+02
     17.591  0.3702E-01  0.1368E+02
     17.907  0.6924E-01  0.1376E+02
     18.223  0.1493E+00  0.1395E+02
     18.538  0.1357E+00  0.1402E+02
     18.854  0.2219E+00  0.1426E+02
     19.169  0.2886E+00  0.1441E+02
     19.485  0.1505E+00  0.1476E+02
     19.800  0.2974E+00  0.1546E+02
     20.116  0.5593E+00  0.1624E+02
     20.431  0.3253E+00  0.1688E+02
     20.747  0.3058E+00  0.1735E+02
     21.062  0.1731E+00  0.1761E+02
     21.378  0.1729E+00  0.1776E+02
     21.694  0.0000E+00  0.1790E+02
     22.009  0.3462E-01  0.1798E+02
     22.325  0.9486E-01  0.1806E+02
     22.640  0.6924E-01  0.1817E+02
     22.956  0.8045E-01  0.1826E+02
     23.271  0.1385E+00  0.1836E+02
     23.587  0.6644E-04  0.1836E+02
     23.902  0.2581E+00  0.1851E+02
     24.218  0.1168E-03  0.1855E+02
     24.534  0.2225E-04  0.1864E+02
     24.849  0.1402E+00  0.1875E+02
     25.165  0.8404E-02  0.1879E+02
     25.480  0.4809E-09  0.1888E+02
     25.796  0.1395E+00  0.1902E+02
     26.111  0.1624E+00  0.1914E+02
     26.427  0.3536E-04  0.1923E+02
     26.742  0.6924E-01  0.1931E+02
     27.058  0.6310E-01  0.1940E+02
     27.374  0.6924E-01  0.1951E+02
     27.689  0.1729E+00  0.1972E+02
     28.005  0.7746E-01  0.1980E+02
     28.320  0.0000E+00  0.1995E+02
     28.636  0.4796E-01  0.2000E+02
     28.951  0.1558E+00  0.2016E+02
     29.267  0.1385E+00  0.2031E+02
     29.582  0.3462E-01  0.2049E+02
     29.898  0.2906E+00  0.2065E+02
     30.213  0.1734E+00  0.2078E+02
     30.529  0.1154E+00  0.2085E+02
     30.845  0.5711E+00  0.2119E+02
     31.160  0.2751E+00  0.2138E+02
     31.476  0.6924E-01  0.2163E+02
     31.791  0.6110E-02  0.2176E+02
     32.107  0.1383E+00  0.2196E+02
     32.422  0.1731E+00  0.2216E+02
     32.738  0.6924E-01  0.2223E+02
     33.053  0.3316E-03  0.2234E+02
     33.369  0.5424E-01  0.2252E+02
     33.685  0.1385E+00  0.2263E+02
     34.000  0.1379E+00  0.2270E+02
     34.316  0.1394E+00  0.2288E+02
     34.631  0.1534E+00  0.2303E+02
     34.947  0.0000E+00  0.2320E+02
     35.262  0.6924E-01  0.2329E+02
     35.578  0.7148E-01  0.2335E+02
     35.893  0.3386E+00  0.2357E+02
     36.209  0.1385E+00  0.2371E+02
     36.524  0.4491E-02  0.2380E+02
     36.840  0.0000E+00  0.2391E+02
     37.156  0.0000E+00  0.2392E+02
     37.471  0.0000E+00  0.2392E+02
     37.787  0.0000E+00  0.2396E+02
     38.102  0.5578E-01  0.2398E+02
     38.418  0.0000E+00  0.2398E+02
     38.733  0.0000E+00  0.2398E+02
     39.049  0.0000E+00  0.2399E+02
     39.364  0.0000E+00  0.2399E+02
     39.680  0.0000E+00  0.2399E+02
     39.996  0.0000E+00  0.2399E+02
     40.311  0.0000E+00  0.2399E+02
     40.627  0.0000E+00  0.2399E+02
     40.942  0.0000E+00  0.2399E+02
     41.258  0.0000E+00  0.2399E+02
     41.573  0.0000E+00  0.2399E+02
     41.889  0.0000E+00  0.2399E+02
     42.204  0.0000E+00  0.2399E+02
     42.520  0.1337E-03  0.2399E+02
     42.835  0.0000E+00  0.2400E+02
     43.151  0.0000E+00  0.2400E+02
     43.467  0.0000E+00  0.2400E+02
     43.782  0.0000E+00  0.2400E+02
     44.098  0.0000E+00  0.2400E+02
     44.413  0.0000E+00  0.2400E+02
     44.729  0.0000E+00  0.2400E+02
     45.044  0.0000E+00  0.2400E+02
     45.360  0.0000E+00  0.2400E+02
     45.675  0.0000E+00  0.2400E+02
     45.991  0.0000E+00  0.2400E+02
     46.307  0.0000E+00  0.2400E+02
     46.622  0.0000E+00  0.2400E+02
     46.938  0.0000E+00  0.2400E+02
