    2    2    1    1
  0.7890735E+01  0.2815383E-09  0.2815383E-09  0.2815383E-09  0.5000000E-15
  1.000000000000000E-004
  CAR 
 unknown system                          
     10   1099     12
 
  0.0000000E+00  0.0000000E+00  0.0000000E+00  0.4551661E-03
    1      -43.424465   1.000000
    2      -22.619209   1.000000
    3       -1.427352   1.000000
    4       -1.427352   1.000000
    5       -1.426702   1.000000
    6        9.183326   0.000000
    7       24.402546   0.000000
    8       24.402547   0.000000
    9       24.406566   0.000000
   10       25.150196   0.000000
   11       25.150197   0.000000
   12       25.152749   0.000000
 
  0.7692308E-01  0.6938894E-17 -0.3185691E-17  0.9103323E-03
    1      -43.420769   1.000000
    2      -22.596180   1.000000
    3       -1.602845   1.000000
    4       -1.442729   1.000000
    5       -1.442165   1.000000
    6        9.352656   0.000000
    7       22.272653   0.000000
    8       23.701927   0.000000
    9       23.704702   0.000000
   10       25.619854   0.000000
   11       25.622816   0.000000
   12       26.073301   0.000000
 
  0.1538462E+00 -0.2775558E-16 -0.2028051E-16  0.9103323E-03
    1      -43.410199   1.000000
    2      -22.529854   1.000000
    3       -2.065387   1.000000
    4       -1.484835   1.000000
    5       -1.484310   1.000000
    6        9.783120   0.000000
    7       20.055229   0.000000
    8       22.524803   0.000000
    9       22.527141   0.000000
   10       26.448411   0.000000
   11       26.451676   0.000000
   12       26.781049   0.000000
 
  0.2307692E+00 -0.2775558E-16 -0.9588413E-17  0.9103323E-03
    1      -43.395417   1.000000
    2      -22.434458   1.000000
    3       -2.670129   1.000000
    4       -1.542893   1.000000
    5       -1.542423   1.000000
    6       10.258601   0.000000
    7       18.436750   0.000000
    8       21.353737   0.000000
    9       21.355897   0.000000
   10       27.585751   0.000000
   11       27.589125   0.000000
   12       27.711394   0.000000
 
  0.3076923E+00  0.0000000E+00 -0.4053053E-16  0.9103323E-03
    1      -43.379653   1.000000
    2      -22.329665   1.000000
    3       -3.266536   1.000000
    4       -1.602860   1.000000
    5       -1.602447   1.000000
    6       10.567795   0.000000
    7       17.512816   0.000000
    8       20.380905   0.000000
    9       20.383007   0.000000
   10       28.871427   0.000000
   11       28.987147   0.000000
   12       28.990554   0.000000
 
  0.3846154E+00  0.2775558E-16  0.3951917E-16  0.9103323E-03
    1      -43.366596   1.000000
    2      -22.239961   1.000000
    3       -3.734033   1.000000
    4       -1.651339   1.000000
    5       -1.650973   1.000000
    6       10.642106   0.000000
    7       17.182450   0.000000
    8       19.697362   0.000000
    9       19.699456   0.000000
   10       30.154208   0.000000
   11       30.457359   0.000000
   12       30.460660   0.000000
 
  0.4615385E+00 -0.5551115E-16 -0.1917683E-16  0.9103323E-03
    1      -43.359224   1.000000
    2      -22.188047   1.000000
    3       -3.989267   1.000000
    4       -1.678240   1.000000
    5       -1.677901   1.000000
    6       10.610299   0.000000
    7       17.146278   0.000000
    8       19.346620   0.000000
    9       19.348718   0.000000
   10       31.293233   0.000000
   11       31.538878   0.000000
   12       31.541984   0.000000
 
 -0.1387779E-16  0.7692308E-01  0.1342293E-16  0.9103323E-03
    1      -43.420769   1.000000
    2      -22.596180   1.000000
    3       -1.602845   1.000000
    4       -1.442729   1.000000
    5       -1.442165   1.000000
    6        9.352656   0.000000
    7       22.272653   0.000000
    8       23.701927   0.000000
    9       23.704702   0.000000
   10       25.619854   0.000000
   11       25.622816   0.000000
   12       26.073301   0.000000
 
  0.7692308E-01  0.7692308E-01  0.6312090E-17  0.9103323E-03
    1      -43.419557   1.000000
    2      -22.588113   1.000000
    3       -1.581031   1.000000
    4       -1.490649   1.000000
    5       -1.490196   1.000000
    6        9.418050   0.000000
    7       22.825712   0.000000
    8       23.076175   0.000000
    9       23.078382   0.000000
   10       24.055087   0.000000
   11       27.050297   0.000000
   12       27.052466   0.000000
 
  0.1538462E+00  0.7692308E-01  0.7016821E-17  0.9103323E-03
    1      -43.411278   1.000000
    2      -22.534873   1.000000
    3       -1.935114   1.000000
    4       -1.561005   1.000000
    5       -1.512809   1.000000
    6        9.788312   0.000000
    7       20.610449   0.000000
    8       22.338645   0.000000
    9       22.789516   0.000000
   10       23.907014   0.000000
   11       27.926292   0.000000
   12       28.061599   0.000000
 
  0.2307692E+00  0.7692308E-01  0.2465035E-16  0.9103323E-03
    1      -43.397966   1.000000
    2      -22.447362   1.000000
    3       -2.492553   1.000000
    4       -1.637490   1.000000
    5       -1.559108   1.000000
    6       10.291449   0.000000
    7       18.780927   0.000000
    8       21.488184   0.000000
    9       21.608289   0.000000
   10       24.958395   0.000000
   11       28.771730   0.000000
   12       28.922482   0.000000
 
  0.3076923E+00  0.7692308E-01  0.7584333E-17  0.9103323E-03
    1      -43.382631   1.000000
    2      -22.343796   1.000000
    3       -3.087136   1.000000
    4       -1.701643   1.000000
    5       -1.636201   1.000000
    6       10.706712   0.000000
    7       17.598230   0.000000
    8       20.602458   0.000000
    9       20.645481   0.000000
   10       26.294422   0.000000
   11       29.869026   0.000000
   12       29.980210   0.000000
 
  0.3846154E+00  0.7692308E-01  0.4367302E-17  0.9103323E-03
    1      -43.368722   1.000000
    2      -22.246917   1.000000
    3       -3.591313   1.000000
    4       -1.739211   1.000000
    5       -1.725433   1.000000
    6       10.886830   0.000000
    7       17.053318   0.000000
    8       19.895748   0.000000
    9       19.955980   0.000000
   10       27.802784   0.000000
   11       31.082993   0.000000
   12       31.134172   0.000000
 
  0.4615385E+00  0.7692308E-01  0.2893803E-16  0.9103323E-03
    1      -43.359497   1.000000
    2      -22.180963   1.000000
    3       -3.911755   1.000000
    4       -1.805814   1.000000
    5       -1.742557   1.000000
    6       10.890477   0.000000
    7       16.912795   0.000000
    8       19.514756   0.000000
    9       19.519461   0.000000
   10       29.332132   0.000000
   11       31.886462   0.000000
   12       31.927345   0.000000
 
 -0.4615385E+00  0.7692308E-01  0.3953611E-16  0.9103323E-03
    1      -43.357038   1.000000
    2      -22.163341   1.000000
    3       -3.993187   1.000000
    4       -1.859044   1.000000
    5       -1.711558   1.000000
    6       10.873259   0.000000
    7       16.889697   0.000000
    8       19.380119   0.000000
    9       19.459785   0.000000
   10       30.583218   0.000000
   11       31.507391   0.000000
   12       31.669357   0.000000
 
 -0.3846154E+00  0.7692308E-01  0.8597384E-17  0.9103323E-03
    1      -43.361933   1.000000
    2      -22.199236   1.000000
    3       -3.822258   1.000000
    4       -1.873055   1.000000
    5       -1.653156   1.000000
    6       10.887745   0.000000
    7       16.898063   0.000000
    8       19.583289   0.000000
    9       19.680507   0.000000
   10       30.118091   0.000000
   11       30.355358   0.000000
   12       31.400112   0.000000
 
 -0.3076923E+00  0.7692308E-01  0.1164043E-15  0.9103323E-03
    1      -43.373011   1.000000
    2      -22.278333   1.000000
    3       -3.428683   1.000000
    4       -1.843775   1.000000
    5       -1.579870   1.000000
    6       10.833807   0.000000
    7       17.116290   0.000000
    8       20.138920   0.000000
    9       20.153613   0.000000
   10       28.677358   0.000000
   11       28.871209   0.000000
   12       30.900404   0.000000
 
 -0.2307692E+00  0.7692308E-01  0.2995193E-16  0.9103323E-03
    1      -43.387808   1.000000
    2      -22.380424   1.000000
    3       -2.884030   1.000000
    4       -1.775456   1.000000
    5       -1.507677   1.000000
    6       10.563873   0.000000
    7       17.834094   0.000000
    8       20.820958   0.000000
    9       21.039001   0.000000
   10       27.081464   0.000000
   11       27.719998   0.000000
   12       29.893692   0.000000
 
 -0.1538462E+00  0.7692308E-01 -0.9910285E-18  0.9103323E-03
    1      -43.402867   1.000000
    2      -22.480940   1.000000
    3       -2.298872   1.000000
    4       -1.678277   1.000000
    5       -1.452922   1.000000
    6       10.096222   0.000000
    7       19.182657   0.000000
    8       21.577378   0.000000
    9       22.251403   0.000000
   10       25.757394   0.000000
   11       26.823763   0.000000
   12       28.838077   0.000000
 
 -0.7692308E-01  0.7692308E-01 -0.4208984E-17  0.9103323E-03
    1      -43.414733   1.000000
    2      -22.557994   1.000000
    3       -1.824942   1.000000
    4       -1.558606   1.000000
    5       -1.428962   1.000000
    6        9.620102   0.000000
    7       20.972620   0.000000
    8       22.390641   0.000000
    9       23.608376   0.000000
   10       24.862186   0.000000
   11       26.227464   0.000000
   12       27.670179   0.000000
 
 -0.1387779E-16  0.1538462E+00  0.2681367E-16  0.9103323E-03
    1      -43.410199   1.000000
    2      -22.529854   1.000000
    3       -2.065387   1.000000
    4       -1.484835   1.000000
    5       -1.484310   1.000000
    6        9.783120   0.000000
    7       20.055229   0.000000
    8       22.524803   0.000000
    9       22.527141   0.000000
   10       26.448411   0.000000
   11       26.451676   0.000000
   12       26.781049   0.000000
 
  0.7692308E-01  0.1538462E+00  0.9749349E-17  0.9103323E-03
    1      -43.411278   1.000000
    2      -22.534873   1.000000
    3       -1.935114   1.000000
    4       -1.561005   1.000000
    5       -1.512809   1.000000
    6        9.788312   0.000000
    7       20.610449   0.000000
    8       22.338645   0.000000
    9       22.789516   0.000000
   10       23.907014   0.000000
   11       27.926292   0.000000
   12       28.061599   0.000000
 
  0.1538462E+00  0.1538462E+00  0.1248865E-16  0.9103323E-03
    1      -43.405796   1.000000
    2      -22.494732   1.000000
    3       -2.027750   1.000000
    4       -1.664471   1.000000
    5       -1.663966   1.000000
    6       10.111080   0.000000
    7       20.714388   0.000000
    8       21.971012   0.000000
    9       21.973084   0.000000
   10       22.210392   0.000000
   11       29.847678   0.000000
   12       29.849948   0.000000
 
  0.2307692E+00  0.1538462E+00  0.1722696E-16  0.9103323E-03
    1      -43.394913   1.000000
    2      -22.417088   1.000000
    3       -2.457564   1.000000
    4       -1.768731   1.000000
    5       -1.744551   1.000000
    6       10.634146   0.000000
    7       19.090504   0.000000
    8       21.282346   0.000000
    9       21.475568   0.000000
   10       22.579797   0.000000
   11       30.900242   0.000000
   12       30.942475   0.000000
 
  0.3076923E+00  0.1538462E+00  0.1403364E-16  0.9103323E-03
    1      -43.381222   1.000000
    2      -22.317924   1.000000
    3       -2.992513   1.000000
    4       -1.851405   1.000000
    5       -1.850780   1.000000
    6       11.170826   0.000000
    7       17.669217   0.000000
    8       20.484341   0.000000
    9       20.880170   0.000000
   10       23.779365   0.000000
   11       31.576193   0.000000
   12       31.830336   0.000000
 
  0.3846154E+00  0.1538462E+00  0.1082169E-16  0.9103323E-03
    1      -43.367786   1.000000
    2      -22.218690   1.000000
    3       -3.474696   1.000000
    4       -1.996790   1.000000
    5       -1.893817   1.000000
    6       11.524878   0.000000
    7       16.834637   0.000000
    8       19.919981   0.000000
    9       20.297380   0.000000
   10       25.201590   0.000000
   11       32.329656   0.000000
   12       32.701381   0.000000
 
  0.4615385E+00  0.1538462E+00  0.4927021E-16  0.9103323E-03
    1      -43.357798   1.000000
    2      -22.143815   1.000000
    3       -3.806989   1.000000
    4       -2.150282   1.000000
    5       -1.887431   1.000000
    6       11.631788   0.000000
    7       16.489164   0.000000
    8       19.644780   0.000000
    9       19.837320   0.000000
   10       26.712260   0.000000
   11       32.810319   0.000000
   12       32.934488   0.000000
 
 -0.4615385E+00  0.1538462E+00  0.4353749E-17  0.9103323E-03
    1      -43.353445   1.000000
    2      -22.112210   1.000000
    3       -3.930133   1.000000
    4       -2.273121   1.000000
    5       -1.833910   1.000000
    6       11.613580   0.000000
    7       16.360836   0.000000
    8       19.593423   0.000000
    9       19.635763   0.000000
   10       28.194029   0.000000
   11       32.194827   0.000000
   12       32.333201   0.000000
 
 -0.3846154E+00  0.1538462E+00  0.8443733E-16  0.9103323E-03
    1      -43.355740   1.000000
    2      -22.132779   1.000000
    3       -3.825085   1.000000
    4       -2.333920   1.000000
    5       -1.744873   1.000000
    6       11.573424   0.000000
    7       16.295707   0.000000
    8       19.621311   0.000000
    9       19.814258   0.000000
   10       29.442366   0.000000
   11       30.850318   0.000000
   12       31.146838   0.000000
 
 -0.3076923E+00  0.1538462E+00 -0.2049820E-17  0.9103323E-03
    1      -43.364176   1.000000
    2      -22.199933   1.000000
    3       -3.517509   1.000000
    4       -2.311676   1.000000
    5       -1.639586   1.000000
    6       11.453303   0.000000
    7       16.408393   0.000000
    8       19.952811   0.000000
    9       20.113610   0.000000
   10       29.062284   0.000000
   11       29.463788   0.000000
   12       30.809502   0.000000
 
 -0.2307692E+00  0.1538462E+00  0.2252176E-16  0.9103323E-03
    1      -43.376830   1.000000
    2      -22.295805   1.000000
    3       -3.081804   1.000000
    4       -2.192823   1.000000
    5       -1.541637   1.000000
    6       11.125468   0.000000
    7       16.943023   0.000000
    8       20.493989   0.000000
    9       20.582311   0.000000
   10       27.438778   0.000000
   11       28.441848   0.000000
   12       30.824185   0.000000
 
 -0.1538462E+00  0.1538462E+00 -0.8417968E-17  0.9103323E-03
    1      -43.390793   1.000000
    2      -22.396910   1.000000
    3       -2.639487   1.000000
    4       -1.967331   1.000000
    5       -1.473873   1.000000
    6       10.610562   0.000000
    7       17.966178   0.000000
    8       20.937758   0.000000
    9       21.440053   0.000000
   10       26.232532   0.000000
   11       27.502647   0.000000
   12       30.216051   0.000000
 
 -0.7692308E-01  0.1538462E+00  0.1612073E-16  0.9103323E-03
    1      -43.402867   1.000000
    2      -22.480940   1.000000
    3       -2.298872   1.000000
    4       -1.678277   1.000000
    5       -1.452922   1.000000
    6       10.096222   0.000000
    7       19.182657   0.000000
    8       21.577378   0.000000
    9       22.251403   0.000000
   10       25.757394   0.000000
   11       26.823763   0.000000
   12       28.838077   0.000000
 
  0.0000000E+00  0.2307692E+00  0.4717465E-16  0.9103323E-03
    1      -43.395417   1.000000
    2      -22.434458   1.000000
    3       -2.670129   1.000000
    4       -1.542893   1.000000
    5       -1.542423   1.000000
    6       10.258601   0.000000
    7       18.436750   0.000000
    8       21.353737   0.000000
    9       21.355897   0.000000
   10       27.585751   0.000000
   11       27.589125   0.000000
   12       27.711394   0.000000
 
  0.7692308E-01  0.2307692E+00  0.4398812E-16  0.9103323E-03
    1      -43.397966   1.000000
    2      -22.447362   1.000000
    3       -2.492553   1.000000
    4       -1.637490   1.000000
    5       -1.559108   1.000000
    6       10.291449   0.000000
    7       18.780927   0.000000
    8       21.488184   0.000000
    9       21.608289   0.000000
   10       24.958395   0.000000
   11       28.771730   0.000000
   12       28.922482   0.000000
 
  0.1538462E+00  0.2307692E+00  0.4076939E-16  0.9103323E-03
    1      -43.394913   1.000000
    2      -22.417088   1.000000
    3       -2.457564   1.000000
    4       -1.768731   1.000000
    5       -1.744551   1.000000
    6       10.634146   0.000000
    7       19.090504   0.000000
    8       21.282346   0.000000
    9       21.475568   0.000000
   10       22.579797   0.000000
   11       30.900242   0.000000
   12       30.942474   0.000000
 
  0.2307692E+00  0.2307692E+00  0.1189573E-16  0.9103323E-03
    1      -43.386893   1.000000
    2      -22.349117   1.000000
    3       -2.702822   1.000000
    4       -1.905399   1.000000
    5       -1.904826   1.000000
    6       11.185497   0.000000
    7       18.943769   0.000000
    8       20.671317   0.000000
    9       21.320855   0.000000
   10       21.322845   0.000000
   11       33.202302   0.000000
   12       33.204618   0.000000
 
  0.3076923E+00  0.2307692E+00  0.2051853E-16  0.9103323E-03
    1      -43.375706   1.000000
    2      -22.257015   1.000000
    3       -3.127646   1.000000
    4       -2.042319   1.000000
    5       -2.014980   1.000000
    6       11.812785   0.000000
    7       17.808018   0.000000
    8       20.066375   0.000000
    9       21.025275   0.000000
   10       21.837744   0.000000
   11       33.631373   0.000000
   12       34.443390   0.000000
 
  0.3846154E+00  0.2307692E+00  0.1733029E-16  0.9103323E-03
    1      -43.363993   1.000000
    2      -22.161135   1.000000
    3       -3.532018   1.000000
    4       -2.235827   1.000000
    5       -2.075739   1.000000
    6       12.352827   0.000000
    7       16.770214   0.000000
    8       19.632785   0.000000
    9       20.629133   0.000000
   10       23.010126   0.000000
   11       33.953225   0.000000
   12       34.669606   0.000000
 
  0.4615385E+00  0.2307692E+00  0.2405574E-18  0.9103323E-03
    1      -43.354447   1.000000
    2      -22.084044   1.000000
    3       -3.803015   1.000000
    4       -2.474236   1.000000
    5       -2.074729   1.000000
    6       12.638904   0.000000
    7       16.171383   0.000000
    8       19.460947   0.000000
    9       20.230721   0.000000
   10       24.371451   0.000000
   11       34.164430   0.000000
   12       34.173058   0.000000
 
 -0.4615385E+00  0.2307692E+00  0.8023265E-16  0.9103323E-03
    1      -43.349146   1.000000
    2      -22.044940   1.000000
    3       -3.883421   1.000000
    4       -2.704643   1.000000
    5       -2.012352   1.000000
    6       12.668018   0.000000
    7       15.874983   0.000000
    8       19.558246   0.000000
    9       19.926889   0.000000
   10       25.810181   0.000000
   11       33.363585   0.000000
   12       33.555536   0.000000
 
 -0.3846154E+00  0.2307692E+00 -0.6223151E-17  0.9103323E-03
    1      -43.349436   1.000000
    2      -22.054962   1.000000
    3       -3.763653   1.000000
    4       -2.865431   1.000000
    5       -1.901530   1.000000
    6       12.553121   0.000000
    7       15.693737   0.000000
    8       19.790287   0.000000
    9       19.803107   0.000000
   10       27.334136   0.000000
   11       31.953662   0.000000
   12       32.237621   0.000000
 
 -0.3076923E+00  0.2307692E+00 -0.3719788E-16  0.9103323E-03
    1      -43.355179   1.000000
    2      -22.111244   1.000000
    3       -3.503025   1.000000
    4       -2.881246   1.000000
    5       -1.765810   1.000000
    6       12.277050   0.000000
    7       15.714235   0.000000
    8       19.860230   0.000000
    9       20.067244   0.000000
   10       28.908291   0.000000
   11       30.103263   0.000000
   12       30.892448   0.000000
 
 -0.2307692E+00  0.2307692E+00  0.7064063E-16  0.9103323E-03
    1      -43.365068   1.000000
    2      -22.198767   1.000000
    3       -3.261823   1.000000
    4       -2.636737   1.000000
    5       -1.635527   1.000000
    6       11.766770   0.000000
    7       16.138503   0.000000
    8       20.143125   0.000000
    9       20.289091   0.000000
   10       28.513316   0.000000
   11       29.545642   0.000000
   12       30.276490   0.000000
 
 -0.1538462E+00  0.2307692E+00  0.6745601E-16  0.9103323E-03
    1      -43.376830   1.000000
    2      -22.295805   1.000000
    3       -3.081804   1.000000
    4       -2.192823   1.000000
    5       -1.541637   1.000000
    6       11.125468   0.000000
    7       16.943023   0.000000
    8       20.493989   0.000000
    9       20.582311   0.000000
   10       27.438778   0.000000
   11       28.441848   0.000000
   12       30.824185   0.000000
 
 -0.7692308E-01  0.2307692E+00  0.6423644E-16  0.9103323E-03
    1      -43.387808   1.000000
    2      -22.380424   1.000000
    3       -2.884030   1.000000
    4       -1.775456   1.000000
    5       -1.507677   1.000000
    6       10.563873   0.000000
    7       17.834094   0.000000
    8       20.820958   0.000000
    9       21.039001   0.000000
   10       27.081464   0.000000
   11       27.719998   0.000000
   12       29.893692   0.000000
 
 -0.2775558E-16  0.3076923E+00  0.5365954E-16  0.9103323E-03
    1      -43.379653   1.000000
    2      -22.329665   1.000000
    3       -3.266536   1.000000
    4       -1.602860   1.000000
    5       -1.602447   1.000000
    6       10.567795   0.000000
    7       17.512816   0.000000
    8       20.380904   0.000000
    9       20.383007   0.000000
   10       28.871427   0.000000
   11       28.987147   0.000000
   12       28.990554   0.000000
 
  0.7692308E-01  0.3076923E+00  0.3659521E-16  0.9103323E-03
    1      -43.382631   1.000000
    2      -22.343796   1.000000
    3       -3.087136   1.000000
    4       -1.701643   1.000000
    5       -1.636201   1.000000
    6       10.706712   0.000000
    7       17.598230   0.000000
    8       20.602458   0.000000
    9       20.645480   0.000000
   10       26.294422   0.000000
   11       29.869026   0.000000
   12       29.980210   0.000000
 
  0.1538462E+00  0.3076923E+00  0.1949531E-16  0.9103323E-03
    1      -43.381222   1.000000
    2      -22.317924   1.000000
    3       -2.992513   1.000000
    4       -1.851405   1.000000
    5       -1.850780   1.000000
    6       11.170826   0.000000
    7       17.669217   0.000000
    8       20.484341   0.000000
    9       20.880170   0.000000
   10       23.779365   0.000000
   11       31.576193   0.000000
   12       31.830335   0.000000
 
  0.2307692E+00  0.3076923E+00  0.3713054E-16  0.9103323E-03
    1      -43.375706   1.000000
    2      -22.257015   1.000000
    3       -3.127646   1.000000
    4       -2.042319   1.000000
    5       -2.014980   1.000000
    6       11.812785   0.000000
    7       17.808018   0.000000
    8       20.066375   0.000000
    9       21.025275   0.000000
   10       21.837744   0.000000
   11       33.631372   0.000000
   12       34.443390   0.000000
 
  0.3076923E+00  0.3076923E+00  0.2511283E-16  0.9103323E-03
    1      -43.367434   1.000000
    2      -22.173959   1.000000
    3       -3.469825   1.000000
    4       -2.155928   1.000000
    5       -2.155287   1.000000
    6       12.505482   0.000000
    7       17.598573   0.000000
    8       19.576287   0.000000
    9       21.020105   0.000000
   10       21.022050   0.000000
   11       35.585838   0.000000
   12       37.054459   0.000000
 
  0.3846154E+00  0.3076923E+00 -0.3970890E-17  0.9103323E-03
    1      -43.358262   1.000000
    2      -22.086501   1.000000
    3       -3.816494   1.000000
    4       -2.312057   1.000000
    5       -2.242657   1.000000
    6       13.159994   0.000000
    7       16.837910   0.000000
    8       19.176470   0.000000
    9       20.861465   0.000000
   10       21.493156   0.000000
   11       35.110524   0.000000
   12       35.742964   0.000000
 
  0.4615385E+00  0.3076923E+00 -0.2103691E-16  0.9103323E-03
    1      -43.350236   1.000000
    2      -22.014728   1.000000
    3       -4.028255   1.000000
    4       -2.555983   1.000000
    5       -2.259529   1.000000
    6       13.647672   0.000000
    7       16.096329   0.000000
    8       18.991927   0.000000
    9       20.595245   0.000000
   10       22.557171   0.000000
   11       34.754794   0.000000
   12       35.892202   0.000000
 
 -0.4615385E+00  0.3076923E+00  0.4507740E-16  0.9103323E-03
    1      -43.345309   1.000000
    2      -21.977471   1.000000
    3       -4.038638   1.000000
    4       -2.854528   1.000000
    5       -2.202807   1.000000
    6       13.822901   0.000000
    7       15.574174   0.000000
    8       19.129654   0.000000
    9       20.295289   0.000000
   10       23.821849   0.000000
   11       34.589493   0.000000
   12       35.327692   0.000000
 
 -0.3846154E+00  0.3076923E+00  0.1251644E-15  0.9103323E-03
    1      -43.344562   1.000000
    2      -21.984074   1.000000
    3       -3.829445   1.000000
    4       -3.145763   1.000000
    5       -2.083623   1.000000
    6       13.650674   0.000000
    7       15.251002   0.000000
    8       19.502217   0.000000
    9       20.043311   0.000000
   10       25.287569   0.000000
   11       33.630844   0.000000
   12       33.877891   0.000000
 
 -0.3076923E+00  0.3076923E+00 -0.1683594E-16  0.9103323E-03
    1      -43.348095   1.000000
    2      -22.032711   1.000000
    3       -3.431438   1.000000
    4       -3.365016   1.000000
    5       -1.926490   1.000000
    6       13.093413   0.000000
    7       15.281984   0.000000
    8       19.868574   0.000000
    9       19.890458   0.000000
   10       27.028242   0.000000
   11       31.696420   0.000000
   12       32.355858   0.000000
 
 -0.2307692E+00  0.3076923E+00  0.1187566E-15  0.9103323E-03
    1      -43.355179   1.000000
    2      -22.111244   1.000000
    3       -3.503025   1.000000
    4       -2.881246   1.000000
    5       -1.765810   1.000000
    6       12.277050   0.000000
    7       15.714235   0.000000
    8       19.860230   0.000000
    9       20.067244   0.000000
   10       28.908291   0.000000
   11       30.103263   0.000000
   12       30.892448   0.000000
 
 -0.1538462E+00  0.3076923E+00  0.3230584E-16  0.9103323E-03
    1      -43.364176   1.000000
    2      -22.199933   1.000000
    3       -3.517509   1.000000
    4       -2.311676   1.000000
    5       -1.639586   1.000000
    6       11.453303   0.000000
    7       16.408393   0.000000
    8       19.952811   0.000000
    9       20.113610   0.000000
   10       29.062284   0.000000
   11       29.463788   0.000000
   12       30.809502   0.000000
 
 -0.7692308E-01  0.3076923E+00  0.5684099E-16  0.9103323E-03
    1      -43.373011   1.000000
    2      -22.278333   1.000000
    3       -3.428683   1.000000
    4       -1.843775   1.000000
    5       -1.579870   1.000000
    6       10.833807   0.000000
    7       17.116290   0.000000
    8       20.138920   0.000000
    9       20.153613   0.000000
   10       28.677358   0.000000
   11       28.871209   0.000000
   12       30.900404   0.000000
 
  0.0000000E+00  0.3846154E+00  0.4623106E-16  0.9103323E-03
    1      -43.366596   1.000000
    2      -22.239961   1.000000
    3       -3.734033   1.000000
    4       -1.651339   1.000000
    5       -1.650973   1.000000
    6       10.642106   0.000000
    7       17.182451   0.000000
    8       19.697362   0.000000
    9       19.699456   0.000000
   10       30.154208   0.000000
   11       30.457359   0.000000
   12       30.460660   0.000000
 
  0.7692308E-01  0.3846154E+00  0.4304621E-16  0.9103323E-03
    1      -43.368722   1.000000
    2      -22.246917   1.000000
    3       -3.591313   1.000000
    4       -1.739211   1.000000
    5       -1.725433   1.000000
    6       10.886830   0.000000
    7       17.053318   0.000000
    8       19.895748   0.000000
    9       19.955980   0.000000
   10       27.802784   0.000000
   11       31.082993   0.000000
   12       31.134173   0.000000
 
  0.1538462E+00  0.3846154E+00  0.6758306E-16  0.9103323E-03
    1      -43.367786   1.000000
    2      -22.218690   1.000000
    3       -3.474696   1.000000
    4       -1.996790   1.000000
    5       -1.893817   1.000000
    6       11.524878   0.000000
    7       16.834637   0.000000
    8       19.919981   0.000000
    9       20.297380   0.000000
   10       25.201590   0.000000
   11       32.329656   0.000000
   12       32.701380   0.000000
 
  0.2307692E+00  0.3846154E+00  0.6439822E-16  0.9103323E-03
    1      -43.363993   1.000000
    2      -22.161135   1.000000
    3       -3.532018   1.000000
    4       -2.235827   1.000000
    5       -2.075739   1.000000
    6       12.352827   0.000000
    7       16.770214   0.000000
    8       19.632785   0.000000
    9       20.629133   0.000000
   10       23.010126   0.000000
   11       33.953225   0.000000
   12       34.669605   0.000000
 
  0.3076923E+00  0.3846154E+00  0.4733559E-16  0.9103323E-03
    1      -43.358262   1.000000
    2      -22.086501   1.000000
    3       -3.816494   1.000000
    4       -2.312057   1.000000
    5       -2.242657   1.000000
    6       13.159994   0.000000
    7       16.837910   0.000000
    8       19.176470   0.000000
    9       20.861465   0.000000
   10       21.493156   0.000000
   11       35.110524   0.000000
   12       35.742964   0.000000
 
  0.3846154E+00  0.3846154E+00  0.2444876E-16  0.9103323E-03
    1      -43.351819   1.000000
    2      -22.010604   1.000000
    3       -4.139935   1.000000
    4       -2.359612   1.000000
    5       -2.358919   1.000000
    6       13.847594   0.000000
    7       16.697070   0.000000
    8       18.785268   0.000000
    9       20.936082   0.000000
   10       20.938011   0.000000
   11       34.777511   0.000000