 vasp.5.4.4.18Apr17-6-g9f103f2a35 (build Nov 08 2022 17:27:33) complex          
  
 executed on             LinuxIFC date 2022.11.22  17:22:58
 running on   16 total cores
 distrk:  each k-point on   16 cores,    1 groups
 distr:  one band on NCORES_PER_BAND=   4 cores,    4 groups


--------------------------------------------------------------------------------------------------------


 INCAR:
 POTCAR:    PAW_PBE Li_sv 10Sep2004               
 POTCAR:    PAW_PBE F 08Apr2002                   
 POTCAR:    PAW_PBE Li_sv 10Sep2004               
   VRHFIN =Li: 1s2s2p                                                           
   LEXCH  = PE                                                                  
   EATOM  =   202.7858 eV,   14.9043 Ry                                         
                                                                                
   TITEL  = PAW_PBE Li_sv 10Sep2004                                             
   LULTRA =        F    use ultrasoft PP ?                                      
   IUNSCR =        0    unscreen: 0-lin 1-nonlin 2-no                           
   RPACOR =    0.000    partial core radius                                     
   POMASS =    7.010; ZVAL   =    3.000    mass and valenz                      
   RCORE  =    1.700    outmost cutoff radius                                   
   RWIGS  =    2.050; RWIGS  =    1.085    wigner-seitz radius (au A)           
   ENMAX  =  499.034; ENMIN  =  374.276 eV                                      
   ICORE  =        2    local potential                                         
   LCOR   =        T    correct aug charges                                     
   LPAW   =        T    paw PP                                                  
   EAUG   =  628.945                                                            
   RMAX   =    1.732    core radius for proj-oper                               
   RAUG   =    1.300    factor for augmentation sphere                          
   RDEP   =    1.728    radius for radial grids                                 
   RDEPT  =    1.329    core radius for aug-charge                              
                                                                                
   Atomic configuration                                                         
    4 entries                                                                   
     n  l   j            E        occ.                                          
     1  0  0.50       -51.8549   2.0000                                         
     2  0  0.50        -2.8742   1.0000                                         
     2  1  0.50        -1.3606   0.0000                                         
     3  2  1.50        -1.3606   0.0000                                         
   Description                                                                  
     l       E           TYP  RCUT    TYP  RCUT                                 
     0    -51.8548813     23  1.400                                             
     0     -2.8742052     23  1.700                                             
     1     -1.3605826     23  1.400                                             
     2     -1.3605826     23  1.400                                             
  local pseudopotential read in
  atomic valenz-charges read in
  non local Contribution for L=           0  read in
    real space projection operators read in
  non local Contribution for L=           0  read in
    real space projection operators read in
  non local Contribution for L=           1  read in
    real space projection operators read in
    PAW grid and wavefunctions read in
 
   number of l-projection  operators is LMAX  =           3
   number of lm-projection operators is LMMAX =           5
 
 POTCAR:    PAW_PBE F 08Apr2002                   
   VRHFIN =F: s2p5                                                              
   LEXCH  = PE                                                                  
   EATOM  =   659.6475 eV,   48.4827 Ry                                         
                                                                                
   TITEL  = PAW_PBE F 08Apr2002                                                 
   LULTRA =        F    use ultrasoft PP ?                                      
   IUNSCR =        1    unscreen: 0-lin 1-nonlin 2-no                           
   RPACOR =    1.200    partial core radius                                     
   POMASS =   18.998; ZVAL   =    7.000    mass and valenz                      
   RCORE  =    1.520    outmost cutoff radius                                   
   RWIGS  =    1.500; RWIGS  =    0.794    wigner-seitz radius (au A)           
   ENMAX  =  400.000; ENMIN  =  300.000 eV                                      
   ICORE  =        2    local potential                                         
   LCOR   =        T    correct aug charges                                     
   LPAW   =        T    paw PP                                                  
   EAUG   =  613.614                                                            
   RMAX   =    1.555    core radius for proj-oper                               
   RAUG   =    1.300    factor for augmentation sphere                          
   RDEP   =    1.539    radius for radial grids                                 
   RDEPT  =    1.299    core radius for aug-charge                              
                                                                                
   Atomic configuration                                                         
    4 entries                                                                   
     n  l   j            E        occ.                                          
     1  0  0.50      -663.3661   2.0000                                         
     2  0  0.50       -29.8995   2.0000                                         
     2  1  0.50       -11.1114   5.0000                                         
     3  2  1.50       -10.8847   0.0000                                         
   Description                                                                  
     l       E           TYP  RCUT    TYP  RCUT                                 
     0    -29.8995018     23  1.200                                             
     0     -9.5240782     23  1.200                                             
     1    -11.1113914     23  1.520                                             
     1      1.3605826     23  1.520                                             
     2    -10.8846608      7  1.500                                             
  local pseudopotential read in
  partial core-charges read in
  partial kinetic energy density read in
  atomic valenz-charges read in
  non local Contribution for L=           0  read in
    real space projection operators read in
  non local Contribution for L=           0  read in
    real space projection operators read in
  non local Contribution for L=           1  read in
    real space projection operators read in
  non local Contribution for L=           1  read in
    real space projection operators read in
    PAW grid and wavefunctions read in
 
   number of l-projection  operators is LMAX  =           4
   number of lm-projection operators is LMMAX =           8
 
  PAW_PBE Li_sv 10Sep2004               :
 energy of atom  1       EATOM= -202.7858
 kinetic energy error for atom=    0.0130 (will be added to EATOM!!)
  PAW_PBE F 08Apr2002                   :
 energy of atom  2       EATOM= -659.6475
 kinetic energy error for atom=    0.0323 (will be added to EATOM!!)
 
 
 POSCAR: Li1 F1                                  
  positions in direct lattice
  velocities in cartesian coordinates

 METAGGA = R2SCA    LMAXTAU =  6    LMIXTAU =  T

 exchange correlation table for  LEXCH =        8
   RHO(1)=    0.500       N(1)  =     2000
   RHO(2)=  100.500       N(2)  =     4000

 VTST: version 3.2, (02/03/18)

 CHAIN: initializing optimizer
 
 OPT: Using VASP Conjugate-Gradient optimizer
 CHAIN: Read ICHAIN            0
 
 POSCAR: Li1 F1                                  
  positions in direct lattice
  velocities in cartesian coordinates
 


--------------------------------------------------------------------------------------------------------


 ion  position               nearest neighbor table
   1  0.000  0.000  1.000-   2 1.99   2 1.99   2 1.99   2 1.99   2 1.99   2 1.99
   2  0.500  0.500  0.500-   1 1.99   1 1.99   1 1.99   1 1.99   1 1.99   1 1.99
 

IMPORTANT INFORMATION: All symmetrisations will be switched off!
NOSYMM: (Re-)initialisation of all symmetry stuff for point group C_1.

 
 

Automatic generation of k-mesh.
 generate k-points for:   13   13   13
Space group operators:
 irot       det(A)        alpha          n_x          n_y          n_z        tau_x        tau_y        tau_z
    1     1.000000     0.000000     1.000000     0.000000     0.000000     0.000000     0.000000     0.000000
 
 Subroutine IBZKPT returns following result:
 ===========================================
 
 Found   1099 irreducible k-points:
 
 Following reciprocal coordinates:
            Coordinates               Weight
  0.000000  0.000000  0.000000      1.000000
  0.076923  0.000000 -0.000000      2.000000
  0.153846 -0.000000 -0.000000      2.000000
  0.230769 -0.000000 -0.000000      2.000000
  0.307692  0.000000 -0.000000      2.000000
  0.384615  0.000000  0.000000      2.000000
  0.461538 -0.000000 -0.000000      2.000000
 -0.000000  0.076923  0.000000      2.000000
  0.076923  0.076923  0.000000      2.000000
  0.153846  0.076923  0.000000      2.000000
  0.230769  0.076923  0.000000      2.000000
  0.307692  0.076923  0.000000      2.000000
  0.384615  0.076923  0.000000      2.000000
  0.461538  0.076923  0.000000      2.000000
 -0.461538  0.076923  0.000000      2.000000
 -0.384615  0.076923  0.000000      2.000000
 -0.307692  0.076923  0.000000      2.000000
 -0.230769  0.076923  0.000000      2.000000
 -0.153846  0.076923 -0.000000      2.000000
 -0.076923  0.076923 -0.000000      2.000000
 -0.000000  0.153846  0.000000      2.000000
  0.076923  0.153846  0.000000      2.000000
  0.153846  0.153846  0.000000      2.000000
  0.230769  0.153846  0.000000      2.000000
  0.307692  0.153846  0.000000      2.000000
  0.384615  0.153846  0.000000      2.000000
  0.461538  0.153846  0.000000      2.000000
 -0.461538  0.153846  0.000000      2.000000
 -0.384615  0.153846  0.000000      2.000000
 -0.307692  0.153846 -0.000000      2.000000
 -0.230769  0.153846  0.000000      2.000000
 -0.153846  0.153846 -0.000000      2.000000
 -0.076923  0.153846  0.000000      2.000000
  0.000000  0.230769  0.000000      2.000000
  0.076923  0.230769  0.000000      2.000000
  0.153846  0.230769  0.000000      2.000000
  0.230769  0.230769  0.000000      2.000000
  0.307692  0.230769  0.000000      2.000000
  0.384615  0.230769  0.000000      2.000000
  0.461538  0.230769  0.000000      2.000000
 -0.461538  0.230769  0.000000      2.000000
 -0.384615  0.230769 -0.000000      2.000000
 -0.307692  0.230769 -0.000000      2.000000
 -0.230769  0.230769  0.000000      2.000000
 -0.153846  0.230769  0.000000      2.000000
 -0.076923  0.230769  0.000000      2.000000
 -0.000000  0.307692  0.000000      2.000000
  0.076923  0.307692  0.000000      2.000000
  0.153846  0.307692  0.000000      2.000000
  0.230769  0.307692  0.000000      2.000000
  0.307692  0.307692  0.000000      2.000000
  0.384615  0.307692 -0.000000      2.000000
  0.461538  0.307692 -0.000000      2.000000
 -0.461538  0.307692  0.000000      2.000000
 -0.384615  0.307692  0.000000      2.000000
 -0.307692  0.307692 -0.000000      2.000000
 -0.230769  0.307692  0.000000      2.000000
 -0.153846  0.307692  0.000000      2.000000
 -0.076923  0.307692  0.000000      2.000000
  0.000000  0.384615  0.000000      2.000000
  0.076923  0.384615  0.000000      2.000000
  0.153846  0.384615  0.000000      2.000000
  0.230769  0.384615  0.000000      2.000000
  0.307692  0.384615  0.000000      2.000000
  0.384615  0.384615  0.000000      2.000000
  0.461538  0.384615  0.000000      2.000000
 -0.461538  0.384615  0.000000      2.000000
 -0.384615  0.384615  0.000000      2.000000
 -0.307692  0.384615  0.000000      2.000000
 -0.230769  0.384615  0.000000      2.000000
 -0.153846  0.384615  0.000000      2.000000
 -0.076923  0.384615  0.000000      2.000000
  0.000000  0.461538  0.000000      2.000000
  0.076923  0.461538  0.000000      2.000000
  0.153846  0.461538  0.000000      2.000000
  0.230769  0.461538  0.000000      2.000000
  0.307692  0.461538  0.000000      2.000000
  0.384615  0.461538  0.000000      2.000000
  0.461538  0.461538  0.000000      2.000000
 -0.461538  0.461538  0.000000      2.000000
 -0.384615  0.461538 -0.000000      2.000000
 -0.307692  0.461538  0.000000      2.000000
 -0.230769  0.461538 -0.000000      2.000000
 -0.153846  0.461538  0.000000      2.000000
 -0.076923  0.461538  0.000000      2.000000
  0.000000 -0.000000  0.076923      2.000000
  0.076923 -0.000000  0.076923      2.000000
  0.153846 -0.000000  0.076923      2.000000
  0.230769 -0.000000  0.076923      2.000000
  0.307692  0.000000  0.076923      2.000000
  0.384615  0.000000  0.076923      2.000000
  0.461538  0.000000  0.076923      2.000000
 -0.461538  0.000000  0.076923      2.000000
 -0.384615  0.000000  0.076923      2.000000
 -0.307692  0.000000  0.076923      2.000000
 -0.230769  0.000000  0.076923      2.000000
 -0.153846 -0.000000  0.076923      2.000000
 -0.076923 -0.000000  0.076923      2.000000
 -0.000000  0.076923  0.076923      2.000000
  0.076923  0.076923  0.076923      2.000000
  0.153846  0.076923  0.076923      2.000000
  0.230769  0.076923  0.076923      2.000000
  0.307692  0.076923  0.076923      2.000000
  0.384615  0.076923  0.076923      2.000000
  0.461538  0.076923  0.076923      2.000000
 -0.461538  0.076923  0.076923      2.000000
 -0.384615  0.076923  0.076923      2.000000
 -0.307692  0.076923  0.076923      2.000000
 -0.230769  0.076923  0.076923      2.000000
 -0.153846  0.076923  0.076923      2.000000
 -0.076923  0.076923  0.076923      2.000000
  0.000000  0.153846  0.076923      2.000000
  0.076923  0.153846  0.076923      2.000000
  0.153846  0.153846  0.076923      2.000000
  0.230769  0.153846  0.076923      2.000000
  0.307692  0.153846  0.076923      2.000000
  0.384615  0.153846  0.076923      2.000000
  0.461538  0.153846  0.076923      2.000000
 -0.461538  0.153846  0.076923      2.000000
 -0.384615  0.153846  0.076923      2.000000
 -0.307692  0.153846  0.076923      2.000000
 -0.230769  0.153846  0.076923      2.000000
 -0.153846  0.153846  0.076923      2.000000
 -0.076923  0.153846  0.076923      2.000000
 -0.000000  0.230769  0.076923      2.000000
  0.076923  0.230769  0.076923      2.000000
  0.153846  0.230769  0.076923      2.000000
  0.230769  0.230769  0.076923      2.000000
  0.307692  0.230769  0.076923      2.000000
  0.384615  0.230769  0.076923      2.000000
  0.461538  0.230769  0.076923      2.000000
 -0.461538  0.230769  0.076923      2.000000
 -0.384615  0.230769  0.076923      2.000000
 -0.307692  0.230769  0.076923      2.000000
 -0.230769  0.230769  0.076923      2.000000
 -0.153846  0.230769  0.076923      2.000000
 -0.076923  0.230769  0.076923      2.000000
 -0.000000  0.307692  0.076923      2.000000
  0.076923  0.307692  0.076923      2.000000
  0.153846  0.307692  0.076923      2.000000
  0.230769  0.307692  0.076923      2.000000
  0.307692  0.307692  0.076923      2.000000
  0.384615  0.307692  0.076923      2.000000
  0.461538  0.307692  0.076923      2.000000
 -0.461538  0.307692  0.076923      2.000000
 -0.384615  0.307692  0.076923      2.000000
 -0.307692  0.307692  0.076923      2.000000
 -0.230769  0.307692  0.076923      2.000000
 -0.153846  0.307692  0.076923      2.000000
 -0.076923  0.307692  0.076923      2.000000
 -0.000000  0.384615  0.076923      2.000000
  0.076923  0.384615  0.076923      2.000000
  0.153846  0.384615  0.076923      2.000000
  0.230769  0.384615  0.076923      2.000000
  0.307692  0.384615  0.076923      2.000000
  0.384615  0.384615  0.076923      2.000000
  0.461538  0.384615  0.076923      2.000000
 -0.461538  0.384615  0.076923      2.000000
 -0.384615  0.384615  0.076923      2.000000
 -0.307692  0.384615  0.076923      2.000000
 -0.230769  0.384615  0.076923      2.000000
 -0.153846  0.384615  0.076923      2.000000
 -0.076923  0.384615  0.076923      2.000000
  0.000000  0.461538  0.076923      2.000000
  0.076923  0.461538  0.076923      2.000000
  0.153846  0.461538  0.076923      2.000000
  0.230769  0.461538  0.076923      2.000000
  0.307692  0.461538  0.076923      2.000000
  0.384615  0.461538  0.076923      2.000000
  0.461538  0.461538  0.076923      2.000000
 -0.461538  0.461538  0.076923      2.000000
 -0.384615  0.461538  0.076923      2.000000
 -0.307692  0.461538  0.076923      2.000000
 -0.230769  0.461538  0.076923      2.000000
 -0.153846  0.461538  0.076923      2.000000
 -0.076923  0.461538  0.076923      2.000000
  0.000000 -0.461538  0.076923      2.000000
  0.076923 -0.461538  0.076923      2.000000
  0.153846 -0.461538  0.076923      2.000000
  0.230769 -0.461538  0.076923      2.000000
  0.307692 -0.461538  0.076923      2.000000
  0.384615 -0.461538  0.076923      2.000000
  0.461538 -0.461538  0.076923      2.000000
 -0.461538 -0.461538  0.076923      2.000000
 -0.384615 -0.461538  0.076923      2.000000
 -0.307692 -0.461538  0.076923      2.000000
 -0.230769 -0.461538  0.076923      2.000000
 -0.153846 -0.461538  0.076923      2.000000
 -0.076923 -0.461538  0.076923      2.000000
  0.000000 -0.384615  0.076923      2.000000
  0.076923 -0.384615  0.076923      2.000000
  0.153846 -0.384615  0.076923      2.000000
  0.230769 -0.384615  0.076923      2.000000
  0.307692 -0.384615  0.076923      2.000000
  0.384615 -0.384615  0.076923      2.000000
  0.461538 -0.384615  0.076923      2.000000
 -0.461538 -0.384615  0.076923      2.000000
 -0.384615 -0.384615  0.076923      2.000000
 -0.307692 -0.384615  0.076923      2.000000
 -0.230769 -0.384615  0.076923      2.000000
 -0.153846 -0.384615  0.076923      2.000000
 -0.076923 -0.384615  0.076923      2.000000
  0.000000 -0.307692  0.076923      2.000000
  0.076923 -0.307692  0.076923      2.000000
  0.153846 -0.307692  0.076923      2.000000
  0.230769 -0.307692  0.076923      2.000000
  0.307692 -0.307692  0.076923      2.000000
  0.384615 -0.307692  0.076923      2.000000
  0.461538 -0.307692  0.076923      2.000000
 -0.461538 -0.307692  0.076923      2.000000
 -0.384615 -0.307692  0.076923      2.000000
 -0.307692 -0.307692  0.076923      2.000000
 -0.230769 -0.307692  0.076923      2.000000
 -0.153846 -0.307692  0.076923      2.000000
 -0.076923 -0.307692  0.076923      2.000000
  0.000000 -0.230769  0.076923      2.000000
  0.076923 -0.230769  0.076923      2.000000
  0.153846 -0.230769  0.076923      2.000000
  0.230769 -0.230769  0.076923      2.000000
  0.307692 -0.230769  0.076923      2.000000
  0.384615 -0.230769  0.076923      2.000000
  0.461538 -0.230769  0.076923      2.000000
 -0.461538 -0.230769  0.076923      2.000000
 -0.384615 -0.230769  0.076923      2.000000
 -0.307692 -0.230769  0.076923      2.000000
 -0.230769 -0.230769  0.076923      2.000000
 -0.153846 -0.230769  0.076923      2.000000
 -0.076923 -0.230769  0.076923      2.000000
  0.000000 -0.153846  0.076923      2.000000
  0.076923 -0.153846  0.076923      2.000000
  0.153846 -0.153846  0.076923      2.000000
  0.230769 -0.153846  0.076923      2.000000
  0.307692 -0.153846  0.076923      2.000000
  0.384615 -0.153846  0.076923      2.000000
  0.461538 -0.153846  0.076923      2.000000
 -0.461538 -0.153846  0.076923      2.000000
 -0.384615 -0.153846  0.076923      2.000000
 -0.307692 -0.153846  0.076923      2.000000
 -0.230769 -0.153846  0.076923      2.000000
 -0.153846 -0.153846  0.076923      2.000000
 -0.076923 -0.153846  0.076923      2.000000
  0.000000 -0.076923  0.076923      2.000000
  0.076923 -0.076923  0.076923      2.000000
  0.153846 -0.076923  0.076923      2.000000
  0.230769 -0.076923  0.076923      2.000000
  0.307692 -0.076923  0.076923      2.000000
  0.384615 -0.076923  0.076923      2.000000
  0.461538 -0.076923  0.076923      2.000000
 -0.461538 -0.076923  0.076923      2.000000
 -0.384615 -0.076923  0.076923      2.000000
 -0.307692 -0.076923  0.076923      2.000000
 -0.230769 -0.076923  0.076923      2.000000
 -0.153846 -0.076923  0.076923      2.000000
 -0.076923 -0.076923  0.076923      2.000000
  0.000000  0.000000  0.153846      2.000000
  0.076923 -0.000000  0.153846      2.000000
  0.153846 -0.000000  0.153846      2.000000
  0.230769  0.000000  0.153846      2.000000
  0.307692  0.000000  0.153846      2.000000
  0.384615  0.000000  0.153846      2.000000
  0.461538 -0.000000  0.153846      2.000000
 -0.461538  0.000000  0.153846      2.000000
 -0.384615  0.000000  0.153846      2.000000
 -0.307692 -0.000000  0.153846      2.000000
 -0.230769 -0.000000  0.153846      2.000000
 -0.153846 -0.000000  0.153846      2.000000
 -0.076923  0.000000  0.153846      2.000000
  0.000000  0.076923  0.153846      2.000000
  0.076923  0.076923  0.153846      2.000000
  0.153846  0.076923  0.153846      2.000000
  0.230769  0.076923  0.153846      2.000000
  0.307692  0.076923  0.153846      2.000000
  0.384615  0.076923  0.153846      2.000000
  0.461538  0.076923  0.153846      2.000000
 -0.461538  0.076923  0.153846      2.000000
 -0.384615  0.076923  0.153846      2.000000
 -0.307692  0.076923  0.153846      2.000000
 -0.230769  0.076923  0.153846      2.000000
 -0.153846  0.076923  0.153846      2.000000
 -0.076923  0.076923  0.153846      2.000000
 -0.000000  0.153846  0.153846      2.000000
  0.076923  0.153846  0.153846      2.000000
  0.153846  0.153846  0.153846      2.000000
  0.230769  0.153846  0.153846      2.000000
  0.307692  0.153846  0.153846      2.000000
  0.384615  0.153846  0.153846      2.000000
  0.461538  0.153846  0.153846      2.000000
 -0.461538  0.153846  0.153846      2.000000
 -0.384615  0.153846  0.153846      2.000000
 -0.307692  0.153846  0.153846      2.000000
 -0.230769  0.153846  0.153846      2.000000
 -0.153846  0.153846  0.153846      2.000000
 -0.076923  0.153846  0.153846      2.000000
 -0.000000  0.230769  0.153846      2.000000
  0.076923  0.230769  0.153846      2.000000
  0.153846  0.230769  0.153846      2.000000
  0.230769  0.230769  0.153846      2.000000
  0.307692  0.230769  0.153846      2.000000
  0.384615  0.230769  0.153846      2.000000
  0.461538  0.230769  0.153846      2.000000
 -0.461538  0.230769  0.153846      2.000000
 -0.384615  0.230769  0.153846      2.000000
 -0.307692  0.230769  0.153846      2.000000
 -0.230769  0.230769  0.153846      2.000000
 -0.153846  0.230769  0.153846      2.000000
 -0.076923  0.230769  0.153846      2.000000
 -0.000000  0.307692  0.153846      2.000000
  0.076923  0.307692  0.153846      2.000000
  0.153846  0.307692  0.153846      2.000000
  0.230769  0.307692  0.153846      2.000000
  0.307692  0.307692  0.153846      2.000000
  0.384615  0.307692  0.153846      2.000000
  0.461538  0.307692  0.153846      2.000000
 -0.461538  0.307692  0.153846      2.000000
 -0.384615  0.307692  0.153846      2.000000
 -0.307692  0.307692  0.153846      2.000000
 -0.230769  0.307692  0.153846      2.000000
 -0.153846  0.307692  0.153846      2.000000
 -0.076923  0.307692  0.153846      2.000000
  0.000000  0.384615  0.153846      2.000000
  0.076923  0.384615  0.153846      2.000000
  0.153846  0.384615  0.153846      2.000000
  0.230769  0.384615  0.153846      2.000000
  0.307692  0.384615  0.153846      2.000000
  0.384615  0.384615  0.153846      2.000000
  0.461538  0.384615  0.153846      2.000000
 -0.461538  0.384615  0.153846      2.000000
 -0.384615  0.384615  0.153846      2.000000
 -0.307692  0.384615  0.153846      2.000000
 -0.230769  0.384615  0.153846      2.000000
 -0.153846  0.384615  0.153846      2.000000
 -0.076923  0.384615  0.153846      2.000000
 -0.000000  0.461538  0.153846      2.000000
  0.076923  0.461538  0.153846      2.000000
  0.153846  0.461538  0.153846      2.000000
  0.230769  0.461538  0.153846      2.000000
  0.307692  0.461538  0.153846      2.000000
  0.384615  0.461538  0.153846      2.000000
  0.461538  0.461538  0.153846      2.000000
 -0.461538  0.461538  0.153846      2.000000
 -0.384615  0.461538  0.153846      2.000000
 -0.307692  0.461538  0.153846      2.000000
 -0.230769  0.461538  0.153846      2.000000
 -0.153846  0.461538  0.153846      2.000000
 -0.076923  0.461538  0.153846      2.000000
  0.000000 -0.461538  0.153846      2.000000
  0.076923 -0.461538  0.153846      2.000000
  0.153846 -0.461538  0.153846      2.000000
  0.230769 -0.461538  0.153846      2.000000
  0.307692 -0.461538  0.153846      2.000000
  0.384615 -0.461538  0.153846      2.000000
  0.461538 -0.461538  0.153846      2.000000
 -0.461538 -0.461538  0.153846      2.000000
 -0.384615 -0.461538  0.153846      2.000000
 -0.307692 -0.461538  0.153846      2.000000
 -0.230769 -0.461538  0.153846      2.000000
 -0.153846 -0.461538  0.153846      2.000000
 -0.076923 -0.461538  0.153846      2.000000
  0.000000 -0.384615  0.153846      2.000000
  0.076923 -0.384615  0.153846      2.000000
  0.153846 -0.384615  0.153846      2.000000
  0.230769 -0.384615  0.153846      2.000000
  0.307692 -0.384615  0.153846      2.000000
  0.384615 -0.384615  0.153846      2.000000
  0.461538 -0.384615  0.153846      2.000000
 -0.461538 -0.384615  0.153846      2.000000
 -0.384615 -0.384615  0.153846      2.000000
 -0.307692 -0.384615  0.153846      2.000000
 -0.230769 -0.384615  0.153846      2.000000
 -0.153846 -0.384615  0.153846      2.000000
 -0.076923 -0.384615  0.153846      2.000000
  0.000000 -0.307692  0.153846      2.000000
  0.076923 -0.307692  0.153846      2.000000
  0.153846 -0.307692  0.153846      2.000000
  0.230769 -0.307692  0.153846      2.000000
  0.307692 -0.307692  0.153846      2.000000
  0.384615 -0.307692  0.153846      2.000000
  0.461538 -0.307692  0.153846      2.000000
 -0.461538 -0.307692  0.153846      2.000000
 -0.384615 -0.307692  0.153846      2.000000
 -0.307692 -0.307692  0.153846      2.000000
 -0.230769 -0.307692  0.153846      2.000000
 -0.153846 -0.307692  0.153846      2.000000
 -0.076923 -0.307692  0.153846      2.000000
  0.000000 -0.230769  0.153846      2.000000
  0.076923 -0.230769  0.153846      2.000000
  0.153846 -0.230769  0.153846      2.000000
  0.230769 -0.230769  0.153846      2.000000
  0.307692 -0.230769  0.153846      2.000000
  0.384615 -0.230769  0.153846      2.000000
  0.461538 -0.230769  0.153846      2.000000
 -0.461538 -0.230769  0.153846      2.000000
 -0.384615 -0.230769  0.153846      2.000000
 -0.307692 -0.230769  0.153846      2.000000
 -0.230769 -0.230769  0.153846      2.000000
 -0.153846 -0.230769  0.153846      2.000000
 -0.076923 -0.230769  0.153846      2.000000
  0.000000 -0.153846  0.153846      2.000000
  0.076923 -0.153846  0.153846      2.000000
  0.153846 -0.153846  0.153846      2.000000
  0.230769 -0.153846  0.153846      2.000000
  0.307692 -0.153846  0.153846      2.000000
  0.384615 -0.153846  0.153846      2.000000
  0.461538 -0.153846  0.153846      2.000000
 -0.461538 -0.153846  0.153846      2.000000
 -0.384615 -0.153846  0.153846      2.000000
 -0.307692 -0.153846  0.153846      2.000000
 -0.230769 -0.153846  0.153846      2.000000
 -0.153846 -0.153846  0.153846      2.000000
 -0.076923 -0.153846  0.153846      2.000000
 -0.000000 -0.076923  0.153846      2.000000
  0.076923 -0.076923  0.153846      2.000000
  0.153846 -0.076923  0.153846      2.000000
  0.230769 -0.076923  0.153846      2.000000
  0.307692 -0.076923  0.153846      2.000000
  0.384615 -0.076923  0.153846      2.000000
  0.461538 -0.076923  0.153846      2.000000
 -0.461538 -0.076923  0.153846      2.000000
 -0.384615 -0.076923  0.153846      2.000000
 -0.307692 -0.076923  0.153846      2.000000
 -0.230769 -0.076923  0.153846      2.000000
 -0.153846 -0.076923  0.153846      2.000000
 -0.076923 -0.076923  0.153846      2.000000
  0.000000  0.000000  0.230769      2.000000
  0.076923  0.000000  0.230769      2.000000
  0.153846 -0.000000  0.230769      2.000000
  0.230769 -0.000000  0.230769      2.000000
  0.307692  0.000000  0.230769      2.000000
  0.384615  0.000000  0.230769      2.000000
  0.461538  0.000000  0.230769      2.000000
 -0.461538  0.000000  0.230769      2.000000
 -0.384615  0.000000  0.230769      2.000000
 -0.307692  0.000000  0.230769      2.000000
 -0.230769  0.000000  0.230769      2.000000
 -0.153846 -0.000000  0.230769      2.000000
 -0.076923  0.000000  0.230769      2.000000
 -0.000000  0.076923  0.230769      2.000000
  0.076923  0.076923  0.230769      2.000000
  0.153846  0.076923  0.230769      2.000000
  0.230769  0.076923  0.230769      2.000000
  0.307692  0.076923  0.230769      2.000000
  0.384615  0.076923  0.230769      2.000000
  0.461538  0.076923  0.230769      2.000000
 -0.461538  0.076923  0.230769      2.000000
 -0.384615  0.076923  0.230769      2.000000
 -0.307692  0.076923  0.230769      2.000000
 -0.230769  0.076923  0.230769      2.000000
 -0.153846  0.076923  0.230769      2.000000
 -0.076923  0.076923  0.230769      2.000000
 -0.000000  0.153846  0.230769      2.000000
  0.076923  0.153846  0.230769      2.000000
  0.153846  0.153846  0.230769      2.000000
  0.230769  0.153846  0.230769      2.000000
  0.307692  0.153846  0.230769      2.000000
  0.384615  0.153846  0.230769      2.000000
  0.461538  0.153846  0.230769      2.000000
 -0.461538  0.153846  0.230769      2.000000
 -0.384615  0.153846  0.230769      2.000000
 -0.307692  0.153846  0.230769      2.000000
 -0.230769  0.153846  0.230769      2.000000
 -0.153846  0.153846  0.230769      2.000000
 -0.076923  0.153846  0.230769      2.000000
 -0.000000  0.230769  0.230769      2.000000
  0.076923  0.230769  0.230769      2.000000
  0.153846  0.230769  0.230769      2.000000
  0.230769  0.230769  0.230769      2.000000
  0.307692  0.230769  0.230769      2.000000
  0.384615  0.230769  0.230769      2.000000
  0.461538  0.230769  0.230769      2.000000
 -0.461538  0.230769  0.230769      2.000000
 -0.384615  0.230769  0.230769      2.000000
 -0.307692  0.230769  0.230769      2.000000
 -0.230769  0.230769  0.230769      2.000000
 -0.153846  0.230769  0.230769      2.000000
 -0.076923  0.230769  0.230769      2.000000
 -0.000000  0.307692  0.230769      2.000000
  0.076923  0.307692  0.230769      2.000000
  0.153846  0.307692  0.230769      2.000000
  0.230769  0.307692  0.230769      2.000000
  0.307692  0.307692  0.230769      2.000000
  0.384615  0.307692  0.230769      2.000000
  0.461538  0.307692  0.230769      2.000000
 -0.461538  0.307692  0.230769      2.000000
 -0.384615  0.307692  0.230769      2.000000
 -0.307692  0.307692  0.230769      2.000000
 -0.230769  0.307692  0.230769      2.000000
 -0.153846  0.307692  0.230769      2.000000
 -0.076923  0.307692  0.230769      2.000000
  0.000000  0.384615  0.230769      2.000000
  0.076923  0.384615  0.230769      2.000000
  0.153846  0.384615  0.230769      2.000000
  0.230769  0.384615  0.230769      2.000000
  0.307692  0.384615  0.230769      2.000000
  0.384615  0.384615  0.230769      2.000000
  0.461538  0.384615  0.230769      2.000000
 -0.461538  0.384615  0.230769      2.000000
 -0.384615  0.384615  0.230769      2.000000
 -0.307692  0.384615  0.230769      2.000000
 -0.230769  0.384615  0.230769      2.000000
 -0.153846  0.384615  0.230769      2.000000
 -0.076923  0.384615  0.230769      2.000000
  0.000000  0.461538  0.230769      2.000000
  0.076923  0.461538  0.230769      2.000000
  0.153846  0.461538  0.230769      2.000000
  0.230769  0.461538  0.230769      2.000000
  0.307692  0.461538  0.230769      2.000000
  0.384615  0.461538  0.230769      2.000000
  0.461538  0.461538  0.230769      2.000000
 -0.461538  0.461538  0.230769      2.000000
 -0.384615  0.461538  0.230769      2.000000
 -0.307692  0.461538  0.230769      2.000000
 -0.230769  0.461538  0.230769      2.000000
 -0.153846  0.461538  0.230769      2.000000
 -0.076923  0.461538  0.230769      2.000000
  0.000000 -0.461538  0.230769      2.000000
  0.076923 -0.461538  0.230769      2.000000
  0.153846 -0.461538  0.230769      2.000000
  0.230769 -0.461538  0.230769      2.000000
  0.307692 -0.461538  0.230769      2.000000
  0.384615 -0.461538  0.230769      2.000000
  0.461538 -0.461538  0.230769      2.000000
 -0.461538 -0.461538  0.230769      2.000000
 -0.384615 -0.461538  0.230769      2.000000
 -0.307692 -0.461538  0.230769      2.000000
 -0.230769 -0.461538  0.230769      2.000000
 -0.153846 -0.461538  0.230769      2.000000
 -0.076923 -0.461538  0.230769      2.000000
  0.000000 -0.384615  0.230769      2.000000
  0.076923 -0.384615  0.230769      2.000000
  0.153846 -0.384615  0.230769      2.000000
  0.230769 -0.384615  0.230769      2.000000
  0.307692 -0.384615  0.230769      2.000000
  0.384615 -0.384615  0.230769      2.000000
  0.461538 -0.384615  0.230769      2.000000
 -0.461538 -0.384615  0.230769      2.000000
 -0.384615 -0.384615  0.230769      2.000000
 -0.307692 -0.384615  0.230769      2.000000
 -0.230769 -0.384615  0.230769      2.000000
 -0.153846 -0.384615  0.230769      2.000000
 -0.076923 -0.384615  0.230769      2.000000
 -0.000000 -0.307692  0.230769      2.000000
  0.076923 -0.307692  0.230769      2.000000
  0.153846 -0.307692  0.230769      2.000000
  0.230769 -0.307692  0.230769      2.000000
  0.307692 -0.307692  0.230769      2.000000
  0.384615 -0.307692  0.230769      2.000000
  0.461538 -0.307692  0.230769      2.000000
 -0.461538 -0.307692  0.230769      2.000000
 -0.384615 -0.307692  0.230769      2.000000
 -0.307692 -0.307692  0.230769      2.000000
 -0.230769 -0.307692  0.230769      2.000000
 -0.153846 -0.307692  0.230769      2.000000
 -0.076923 -0.307692  0.230769      2.000000
  0.000000 -0.230769  0.230769      2.000000
  0.076923 -0.230769  0.230769      2.000000
  0.153846 -0.230769  0.230769      2.000000
  0.230769 -0.230769  0.230769      2.000000
  0.307692 -0.230769  0.230769      2.000000
  0.384615 -0.230769  0.230769      2.000000
  0.461538 -0.230769  0.230769      2.000000
 -0.461538 -0.230769  0.230769      2.000000
 -0.384615 -0.230769  0.230769      2.000000
 -0.307692 -0.230769  0.230769      2.000000
 -0.230769 -0.230769  0.230769      2.000000
 -0.153846 -0.230769  0.230769      2.000000
 -0.076923 -0.230769  0.230769      2.000000
  0.000000 -0.153846  0.230769      2.000000
  0.076923 -0.153846  0.230769      2.000000
  0.153846 -0.153846  0.230769      2.000000
  0.230769 -0.153846  0.230769      2.000000
  0.307692 -0.153846  0.230769      2.000000
  0.384615 -0.153846  0.230769      2.000000
  0.461538 -0.153846  0.230769      2.000000
 -0.461538 -0.153846  0.230769      2.000000
 -0.384615 -0.153846  0.230769      2.000000
 -0.307692 -0.153846  0.230769      2.000000
 -0.230769 -0.153846  0.230769      2.000000
 -0.153846 -0.153846  0.230769      2.000000
 -0.076923 -0.153846  0.230769      2.000000
 -0.000000 -0.076923  0.230769      2.000000
  0.076923 -0.076923  0.230769      2.000000
  0.153846 -0.076923  0.230769      2.000000
  0.230769 -0.076923  0.230769      2.000000
  0.307692 -0.076923  0.230769      2.000000
  0.384615 -0.076923  0.230769      2.000000
  0.461538 -0.076923  0.230769      2.000000
 -0.461538 -0.076923  0.230769      2.000000
 -0.384615 -0.076923  0.230769      2.000000
 -0.307692 -0.076923  0.230769      2.000000
 -0.230769 -0.076923  0.230769      2.000000
 -0.153846 -0.076923  0.230769      2.000000
 -0.076923 -0.076923  0.230769      2.000000
  0.000000  0.000000  0.307692      2.000000
  0.076923 -0.000000  0.307692      2.000000
  0.153846  0.000000  0.307692      2.000000
  0.230769 -0.000000  0.307692      2.000000
  0.307692 -0.000000  0.307692      2.000000
  0.384615  0.000000  0.307692      2.000000
  0.461538  0.000000  0.307692      2.000000
 -0.461538 -0.000000  0.307692      2.000000
 -0.384615 -0.000000  0.307692      2.000000
 -0.307692 -0.000000  0.307692      2.000000
 -0.230769 -0.000000  0.307692      2.000000
 -0.153846  0.000000  0.307692      2.000000
 -0.076923 -0.000000  0.307692      2.000000
  0.000000  0.076923  0.307692      2.000000
  0.076923  0.076923  0.307692      2.000000
  0.153846  0.076923  0.307692      2.000000
  0.230769  0.076923  0.307692      2.000000
  0.307692  0.076923  0.307692      2.000000
  0.384615  0.076923  0.307692      2.000000
  0.461538  0.076923  0.307692      2.000000
 -0.461538  0.076923  0.307692      2.000000
 -0.384615  0.076923  0.307692      2.000000
 -0.307692  0.076923  0.307692      2.000000
 -0.230769  0.076923  0.307692      2.000000
 -0.153846  0.076923  0.307692      2.000000
 -0.076923  0.076923  0.307692      2.000000
 -0.000000  0.153846  0.307692      2.000000
  0.076923  0.153846  0.307692      2.000000
  0.153846  0.153846  0.307692      2.000000
  0.230769  0.153846  0.307692      2.000000
  0.307692  0.153846  0.307692      2.000000
  0.384615  0.153846  0.307692      2.000000
  0.461538  0.153846  0.307692      2.000000
 -0.461538  0.153846  0.307692      2.000000
 -0.384615  0.153846  0.307692      2.000000
 -0.307692  0.153846  0.307692      2.000000
 -0.230769  0.153846  0.307692      2.000000
 -0.153846  0.153846  0.307692      2.000000
 -0.076923  0.153846  0.307692      2.000000
 -0.000000  0.230769  0.307692      2.000000
  0.076923  0.230769  0.307692      2.000000
  0.153846  0.230769  0.307692      2.000000
  0.230769  0.230769  0.307692      2.000000
  0.307692  0.230769  0.307692      2.000000
  0.384615  0.230769  0.307692      2.000000
  0.461538  0.230769  0.307692      2.000000
 -0.461538  0.230769  0.307692      2.000000
 -0.384615  0.230769  0.307692      2.000000
 -0.307692  0.230769  0.307692      2.000000
 -0.230769  0.230769  0.307692      2.000000
 -0.153846  0.230769  0.307692      2.000000
 -0.076923  0.230769  0.307692      2.000000
 -0.000000  0.307692  0.307692      2.000000
  0.076923  0.307692  0.307692      2.000000
  0.153846  0.307692  0.307692      2.000000
  0.230769  0.307692  0.307692      2.000000
  0.307692  0.307692  0.307692      2.000000
  0.384615  0.307692  0.307692      2.000000
  0.461538  0.307692  0.307692      2.000000
 -0.461538  0.307692  0.307692      2.000000
 -0.384615  0.307692  0.307692      2.000000
 -0.307692  0.307692  0.307692      2.000000
 -0.230769  0.307692  0.307692      2.000000
 -0.153846  0.307692  0.307692      2.000000
 -0.076923  0.307692  0.307692      2.000000
  0.000000  0.384615  0.307692      2.000000
  0.076923  0.384615  0.307692      2.000000
  0.153846  0.384615  0.307692      2.000000
  0.230769  0.384615  0.307692      2.000000
  0.307692  0.384615  0.307692      2.000000
  0.384615  0.384615  0.307692      2.000000
  0.461538  0.384615  0.307692      2.000000
 -0.461538  0.384615  0.307692      2.000000
 -0.384615  0.384615  0.307692      2.000000
 -0.307692  0.384615  0.307692      2.000000
 -0.230769  0.384615  0.307692      2.000000
 -0.153846  0.384615  0.307692      2.000000
 -0.076923  0.384615  0.307692      2.000000
  0.000000  0.461538  0.307692      2.000000
  0.076923  0.461538  0.307692      2.000000
  0.153846  0.461538  0.307692      2.000000
  0.230769  0.461538  0.307692      2.000000
  0.307692  0.461538  0.307692      2.000000
  0.384615  0.461538  0.307692      2.000000
  0.461538  0.461538  0.307692      2.000000
 -0.461538  0.461538  0.307692      2.000000
 -0.384615  0.461538  0.307692      2.000000
 -0.307692  0.461538  0.307692      2.000000
 -0.230769  0.461538  0.307692      2.000000
 -0.153846  0.461538  0.307692      2.000000
 -0.076923  0.461538  0.307692      2.000000
  0.000000 -0.461538  0.307692      2.000000
  0.076923 -0.461538  0.307692      2.000000
  0.153846 -0.461538  0.307692      2.000000
  0.230769 -0.461538  0.307692      2.000000
  0.307692 -0.461538  0.307692      2.000000
  0.384615 -0.461538  0.307692      2.000000
  0.461538 -0.461538  0.307692      2.000000
 -0.461538 -0.461538  0.307692      2.000000
 -0.384615 -0.461538  0.307692      2.000000
 -0.307692 -0.461538  0.307692      2.000000
 -0.230769 -0.461538  0.307692      2.000000
 -0.153846 -0.461538  0.307692      2.000000
 -0.076923 -0.461538  0.307692      2.000000
  0.000000 -0.384615  0.307692      2.000000
  0.076923 -0.384615  0.307692      2.000000
  0.153846 -0.384615  0.307692      2.000000
  0.230769 -0.384615  0.307692      2.000000
  0.307692 -0.384615  0.307692      2.000000
  0.384615 -0.384615  0.307692      2.000000
  0.461538 -0.384615  0.307692      2.000000
 -0.461538 -0.384615  0.307692      2.000000
 -0.384615 -0.384615  0.307692      2.000000
 -0.307692 -0.384615  0.307692      2.000000
 -0.230769 -0.384615  0.307692      2.000000
 -0.153846 -0.384615  0.307692      2.000000
 -0.076923 -0.384615  0.307692      2.000000
  0.000000 -0.307692  0.307692      2.000000
  0.076923 -0.307692  0.307692      2.000000
  0.153846 -0.307692  0.307692      2.000000
  0.230769 -0.307692  0.307692      2.000000
  0.307692 -0.307692  0.307692      2.000000
  0.384615 -0.307692  0.307692      2.000000
  0.461538 -0.307692  0.307692      2.000000
 -0.461538 -0.307692  0.307692      2.000000
 -0.384615 -0.307692  0.307692      2.000000
 -0.307692 -0.307692  0.307692      2.000000
 -0.230769 -0.307692  0.307692      2.000000
 -0.153846 -0.307692  0.307692      2.000000
 -0.076923 -0.307692  0.307692      2.000000
  0.000000 -0.230769  0.307692      2.000000
  0.076923 -0.230769  0.307692      2.000000
  0.153846 -0.230769  0.307692      2.000000
  0.230769 -0.230769  0.307692      2.000000
  0.307692 -0.230769  0.307692      2.000000
  0.384615 -0.230769  0.307692      2.000000
  0.461538 -0.230769  0.307692      2.000000
 -0.461538 -0.230769  0.307692      2.000000
 -0.384615 -0.230769  0.307692      2.000000
 -0.307692 -0.230769  0.307692      2.000000
 -0.230769 -0.230769  0.307692      2.000000
 -0.153846 -0.230769  0.307692      2.000000
 -0.076923 -0.230769  0.307692      2.000000
  0.000000 -0.153846  0.307692      2.000000
  0.076923 -0.153846  0.307692      2.000000
  0.153846 -0.153846  0.307692      2.000000
  0.230769 -0.153846  0.307692      2.000000
  0.307692 -0.153846  0.307692      2.000000
  0.384615 -0.153846  0.307692      2.000000
  0.461538 -0.153846  0.307692      2.000000
 -0.461538 -0.153846  0.307692      2.000000
 -0.384615 -0.153846  0.307692      2.000000
 -0.307692 -0.153846  0.307692      2.000000
 -0.230769 -0.153846  0.307692      2.000000
 -0.153846 -0.153846  0.307692      2.000000
 -0.076923 -0.153846  0.307692      2.000000
  0.000000 -0.076923  0.307692      2.000000
  0.076923 -0.076923  0.307692      2.000000
  0.153846 -0.076923  0.307692      2.000000
  0.230769 -0.076923  0.307692      2.000000
  0.307692 -0.076923  0.307692      2.000000
  0.384615 -0.076923  0.307692      2.000000
  0.461538 -0.076923  0.307692      2.000000
 -0.461538 -0.076923  0.307692      2.000000
 -0.384615 -0.076923  0.307692      2.000000
 -0.307692 -0.076923  0.307692      2.000000
 -0.230769 -0.076923  0.307692      2.000000
 -0.153846 -0.076923  0.307692      2.000000
 -0.076923 -0.076923  0.307692      2.000000
  0.000000  0.000000  0.384615      2.000000
  0.076923 -0.000000  0.384615      2.000000
  0.153846  0.000000  0.384615      2.000000
  0.230769  0.000000  0.384615      2.000000
  0.307692 -0.000000  0.384615      2.000000
  0.384615 -0.000000  0.384615      2.000000
  0.461538  0.000000  0.384615      2.000000
 -0.461538  0.000000  0.384615      2.000000
 -0.384615  0.000000  0.384615      2.000000
 -0.307692 -0.000000  0.384615      2.000000
 -0.230769  0.000000  0.384615      2.000000
 -0.153846  0.000000  0.384615      2.000000
 -0.076923  0.000000  0.384615      2.000000
  0.000000  0.076923  0.384615      2.000000
  0.076923  0.076923  0.384615      2.000000
  0.153846  0.076923  0.384615      2.000000
  0.230769  0.076923  0.384615      2.000000
  0.307692  0.076923  0.384615      2.000000
  0.384615  0.076923  0.384615      2.000000
  0.461538  0.076923  0.384615      2.000000
 -0.461538  0.076923  0.384615      2.000000
 -0.384615  0.076923  0.384615      2.000000
 -0.307692  0.076923  0.384615      2.000000
 -0.230769  0.076923  0.384615      2.000000
 -0.153846  0.076923  0.384615      2.000000
 -0.076923  0.076923  0.384615      2.000000
  0.000000  0.153846  0.384615      2.000000
  0.076923  0.153846  0.384615      2.000000
  0.153846  0.153846  0.384615      2.000000
  0.230769  0.153846  0.384615      2.000000
  0.307692  0.153846  0.384615      2.000000
  0.384615  0.153846  0.384615      2.000000
  0.461538  0.153846  0.384615      2.000000
 -0.461538  0.153846  0.384615      2.000000
 -0.384615  0.153846  0.384615      2.000000
 -0.307692  0.153846  0.384615      2.000000
 -0.230769  0.153846  0.384615      2.000000
 -0.153846  0.153846  0.384615      2.000000
 -0.076923  0.153846  0.384615      2.000000
 -0.000000  0.230769  0.384615      2.000000
  0.076923  0.230769  0.384615      2.000000
  0.153846  0.230769  0.384615      2.000000
  0.230769  0.230769  0.384615      2.000000
  0.307692  0.230769  0.384615      2.000000
  0.384615  0.230769  0.384615      2.000000
  0.461538  0.230769  0.384615      2.000000
 -0.461538  0.230769  0.384615      2.000000
 -0.384615  0.230769  0.384615      2.000000
 -0.307692  0.230769  0.384615      2.000000
 -0.230769  0.230769  0.384615      2.000000
 -0.153846  0.230769  0.384615      2.000000
 -0.076923  0.230769  0.384615      2.000000
  0.000000  0.307692  0.384615      2.000000
  0.076923  0.307692  0.384615      2.000000
  0.153846  0.307692  0.384615      2.000000
  0.230769  0.307692  0.384615      2.000000
  0.307692  0.307692  0.384615      2.000000
  0.384615  0.307692  0.384615      2.000000
  0.461538  0.307692  0.384615      2.000000
 -0.461538  0.307692  0.384615      2.000000
 -0.384615  0.307692  0.384615      2.000000
 -0.307692  0.307692  0.384615      2.000000
 -0.230769  0.307692  0.384615      2.000000
 -0.153846  0.307692  0.384615      2.000000
 -0.076923  0.307692  0.384615      2.000000
 -0.000000  0.384615  0.384615      2.000000
  0.076923  0.384615  0.384615      2.000000
  0.153846  0.384615  0.384615      2.000000
  0.230769  0.384615  0.384615      2.000000
  0.307692  0.384615  0.384615      2.000000
  0.384615  0.384615  0.384615      2.000000
  0.461538  0.384615  0.384615      2.000000
 -0.461538  0.384615  0.384615      2.000000
 -0.384615  0.384615  0.384615      2.000000
 -0.307692  0.384615  0.384615      2.000000
 -0.230769  0.384615  0.384615      2.000000
 -0.153846  0.384615  0.384615      2.000000
 -0.076923  0.384615  0.384615      2.000000
 -0.000000  0.461538  0.384615      2.000000
  0.076923  0.461538  0.384615      2.000000
  0.153846  0.461538  0.384615      2.000000
  0.230769  0.461538  0.384615      2.000000
  0.307692  0.461538  0.384615      2.000000
  0.384615  0.461538  0.384615      2.000000
  0.461538  0.461538  0.384615      2.000000
 -0.461538  0.461538  0.384615      2.000000
 -0.384615  0.461538  0.384615      2.000000
 -0.307692  0.461538  0.384615      2.000000
 -0.230769  0.461538  0.384615      2.000000
 -0.153846  0.461538  0.384615      2.000000
 -0.076923  0.461538  0.384615      2.000000
  0.000000 -0.461538  0.384615      2.000000
  0.076923 -0.461538  0.384615      2.000000
  0.153846 -0.461538  0.384615      2.000000
  0.230769 -0.461538  0.384615      2.000000
  0.307692 -0.461538  0.384615      2.000000
  0.384615 -0.461538  0.384615      2.000000
  0.461538 -0.461538  0.384615      2.000000
 -0.461538 -0.461538  0.384615      2.000000
 -0.384615 -0.461538  0.384615      2.000000
 -0.307692 -0.461538  0.384615      2.000000
 -0.230769 -0.461538  0.384615      2.000000
 -0.153846 -0.461538  0.384615      2.000000
 -0.076923 -0.461538  0.384615      2.000000
  0.000000 -0.384615  0.384615      2.000000
  0.076923 -0.384615  0.384615      2.000000
  0.153846 -0.384615  0.384615      2.000000
  0.230769 -0.384615  0.384615      2.000000
  0.307692 -0.384615  0.384615      2.000000
  0.384615 -0.384615  0.384615      2.000000
  0.461538 -0.384615  0.384615      2.000000
 -0.461538 -0.384615  0.384615      2.000000
 -0.384615 -0.384615  0.384615      2.000000
 -0.307692 -0.384615  0.384615      2.000000
 -0.230769 -0.384615  0.384615      2.000000
 -0.153846 -0.384615  0.384615      2.000000
 -0.076923 -0.384615  0.384615      2.000000
  0.000000 -0.307692  0.384615      2.000000
  0.076923 -0.307692  0.384615      2.000000
  0.153846 -0.307692  0.384615      2.000000
  0.230769 -0.307692  0.384615      2.000000
  0.307692 -0.307692  0.384615      2.000000
  0.384615 -0.307692  0.384615      2.000000
  0.461538 -0.307692  0.384615      2.000000
 -0.461538 -0.307692  0.384615      2.000000
 -0.384615 -0.307692  0.384615      2.000000
 -0.307692 -0.307692  0.384615      2.000000
 -0.230769 -0.307692  0.384615      2.000000
 -0.153846 -0.307692  0.384615      2.000000
 -0.076923 -0.307692  0.384615      2.000000
  0.000000 -0.230769  0.384615      2.000000
  0.076923 -0.230769  0.384615      2.000000
  0.153846 -0.230769  0.384615      2.000000
  0.230769 -0.230769  0.384615      2.000000
  0.307692 -0.230769  0.384615      2.000000
  0.384615 -0.230769  0.384615      2.000000
  0.461538 -0.230769  0.384615      2.000000
 -0.461538 -0.230769  0.384615      2.000000
 -0.384615 -0.230769  0.384615      2.000000
 -0.307692 -0.230769  0.384615      2.000000
 -0.230769 -0.230769  0.384615      2.000000
 -0.153846 -0.230769  0.384615      2.000000
 -0.076923 -0.230769  0.384615      2.000000
  0.000000 -0.153846  0.384615      2.000000
  0.076923 -0.153846  0.384615      2.000000
  0.153846 -0.153846  0.384615      2.000000
  0.230769 -0.153846  0.384615      2.000000
  0.307692 -0.153846  0.384615      2.000000
  0.384615 -0.153846  0.384615      2.000000
  0.461538 -0.153846  0.384615      2.000000
 -0.461538 -0.153846  0.384615      2.000000
 -0.384615 -0.153846  0.384615      2.000000
 -0.307692 -0.153846  0.384615      2.000000
 -0.230769 -0.153846  0.384615      2.000000
 -0.153846 -0.153846  0.384615      2.000000
 -0.076923 -0.153846  0.384615      2.000000
  0.000000 -0.076923  0.384615      2.000000
  0.076923 -0.076923  0.384615      2.000000
  0.153846 -0.076923  0.384615      2.000000
  0.230769 -0.076923  0.384615      2.000000
  0.307692 -0.076923  0.384615      2.000000
  0.384615 -0.076923  0.384615      2.000000
  0.461538 -0.076923  0.384615      2.000000
 -0.461538 -0.076923  0.384615      2.000000
 -0.384615 -0.076923  0.384615      2.000000
 -0.307692 -0.076923  0.384615      2.000000
 -0.230769 -0.076923  0.384615      2.000000
 -0.153846 -0.076923  0.384615      2.000000
 -0.076923 -0.076923  0.384615      2.000000
  0.000000  0.000000  0.461538      2.000000
  0.076923  0.000000  0.461538      2.000000
  0.153846  0.000000  0.461538      2.000000
  0.230769  0.000000  0.461538      2.000000
  0.307692 -0.000000  0.461538      2.000000
  0.384615 -0.000000  0.461538      2.000000
  0.461538 -0.000000  0.461538      2.000000
 -0.461538  0.000000  0.461538      2.000000
 -0.384615  0.000000  0.461538      2.000000
 -0.307692  0.000000  0.461538      2.000000
 -0.230769  0.000000  0.461538      2.000000
 -0.153846  0.000000  0.461538      2.000000
 -0.076923  0.000000  0.461538      2.000000
  0.000000  0.076923  0.461538      2.000000
  0.076923  0.076923  0.461538      2.000000
  0.153846  0.076923  0.461538      2.000000
  0.230769  0.076923  0.461538      2.000000
  0.307692  0.076923  0.461538      2.000000
  0.384615  0.076923  0.461538      2.000000
  0.461538  0.076923  0.461538      2.000000
 -0.461538  0.076923  0.461538      2.000000
 -0.384615  0.076923  0.461538      2.000000
 -0.307692  0.076923  0.461538      2.000000
 -0.230769  0.076923  0.461538      2.000000
 -0.153846  0.076923  0.461538      2.000000
 -0.076923  0.076923  0.461538      2.000000
 -0.000000  0.153846  0.461538      2.000000
  0.076923  0.153846  0.461538      2.000000
  0.153846  0.153846  0.461538      2.000000
  0.230769  0.153846  0.461538      2.000000
  0.307692  0.153846  0.461538      2.000000
  0.384615  0.153846  0.461538      2.000000
  0.461538  0.153846  0.461538      2.000000
 -0.461538  0.153846  0.461538      2.000000
 -0.384615  0.153846  0.461538      2.000000
 -0.307692  0.153846  0.461538      2.000000
 -0.230769  0.153846  0.461538      2.000000
 -0.153846  0.153846  0.461538      2.000000
 -0.076923  0.153846  0.461538      2.000000
  0.000000  0.230769  0.461538      2.000000
  0.076923  0.230769  0.461538      2.000000
  0.153846  0.230769  0.461538      2.000000
  0.230769  0.230769  0.461538      2.000000
  0.307692  0.230769  0.461538      2.000000
  0.384615  0.230769  0.461538      2.000000
  0.461538  0.230769  0.461538      2.000000
 -0.461538  0.230769  0.461538      2.000000
 -0.384615  0.230769  0.461538      2.000000
 -0.307692  0.230769  0.461538      2.000000
 -0.230769  0.230769  0.461538      2.000000
 -0.153846  0.230769  0.461538      2.000000
 -0.076923  0.230769  0.461538      2.000000
  0.000000  0.307692  0.461538      2.000000
  0.076923  0.307692  0.461538      2.000000
  0.153846  0.307692  0.461538      2.000000
  0.230769  0.307692  0.461538      2.000000
  0.307692  0.307692  0.461538      2.000000
  0.384615  0.307692  0.461538      2.000000
  0.461538  0.307692  0.461538      2.000000
 -0.461538  0.307692  0.461538      2.000000
 -0.384615  0.307692  0.461538      2.000000
 -0.307692  0.307692  0.461538      2.000000
 -0.230769  0.307692  0.461538      2.000000
 -0.153846  0.307692  0.461538      2.000000
 -0.076923  0.307692  0.461538      2.000000
 -0.000000  0.384615  0.461538      2.000000
  0.076923  0.384615  0.461538      2.000000
  0.153846  0.384615  0.461538      2.000000
  0.230769  0.384615  0.461538      2.000000
  0.307692  0.384615  0.461538      2.000000
  0.384615  0.384615  0.461538      2.000000
  0.461538  0.384615  0.461538      2.000000
 -0.461538  0.384615  0.461538      2.000000
 -0.384615  0.384615  0.461538      2.000000
 -0.307692  0.384615  0.461538      2.000000
 -0.230769  0.384615  0.461538      2.000000
 -0.153846  0.384615  0.461538      2.000000
 -0.076923  0.384615  0.461538      2.000000
 -0.000000  0.461538  0.461538      2.000000
  0.076923  0.461538  0.461538      2.000000
  0.153846  0.461538  0.461538      2.000000
  0.230769  0.461538  0.461538      2.000000
  0.307692  0.461538  0.461538      2.000000
  0.384615  0.461538  0.461538      2.000000
  0.461538  0.461538  0.461538      2.000000
 -0.461538  0.461538  0.461538      2.000000
 -0.384615  0.461538  0.461538      2.000000
 -0.307692  0.461538  0.461538      2.000000
 -0.230769  0.461538  0.461538      2.000000
 -0.153846  0.461538  0.461538      2.000000
 -0.076923  0.461538  0.461538      2.000000
  0.000000 -0.461538  0.461538      2.000000
  0.076923 -0.461538  0.461538      2.000000
  0.153846 -0.461538  0.461538      2.000000
  0.230769 -0.461538  0.461538      2.000000
  0.307692 -0.461538  0.461538      2.000000
  0.384615 -0.461538  0.461538      2.000000
  0.461538 -0.461538  0.461538      2.000000
 -0.461538 -0.461538  0.461538      2.000000
 -0.384615 -0.461538  0.461538      2.000000
 -0.307692 -0.461538  0.461538      2.000000
 -0.230769 -0.461538  0.461538      2.000000
 -0.153846 -0.461538  0.461538      2.000000
 -0.076923 -0.461538  0.461538      2.000000
  0.000000 -0.384615  0.461538      2.000000
  0.076923 -0.384615  0.461538      2.000000
  0.153846 -0.384615  0.461538      2.000000
  0.230769 -0.384615  0.461538      2.000000
  0.307692 -0.384615  0.461538      2.000000
  0.384615 -0.384615  0.461538      2.000000
  0.461538 -0.384615  0.461538      2.000000
 -0.461538 -0.384615  0.461538      2.000000
 -0.384615 -0.384615  0.461538      2.000000
 -0.307692 -0.384615  0.461538      2.000000
 -0.230769 -0.384615  0.461538      2.000000
 -0.153846 -0.384615  0.461538      2.000000
 -0.076923 -0.384615  0.461538      2.000000
  0.000000 -0.307692  0.461538      2.000000
  0.076923 -0.307692  0.461538      2.000000
  0.153846 -0.307692  0.461538      2.000000
  0.230769 -0.307692  0.461538      2.000000
  0.307692 -0.307692  0.461538      2.000000
  0.384615 -0.307692  0.461538      2.000000
  0.461538 -0.307692  0.461538      2.000000
 -0.461538 -0.307692  0.461538      2.000000
 -0.384615 -0.307692  0.461538      2.000000
 -0.307692 -0.307692  0.461538      2.000000
 -0.230769 -0.307692  0.461538      2.000000
 -0.153846 -0.307692  0.461538      2.000000
 -0.076923 -0.307692  0.461538      2.000000
 -0.000000 -0.230769  0.461538      2.000000
  0.076923 -0.230769  0.461538      2.000000
  0.153846 -0.230769  0.461538      2.000000
  0.230769 -0.230769  0.461538      2.000000
  0.307692 -0.230769  0.461538      2.000000
  0.384615 -0.230769  0.461538      2.000000
  0.461538 -0.230769  0.461538      2.000000
 -0.461538 -0.230769  0.461538      2.000000
 -0.384615 -0.230769  0.461538      2.000000
 -0.307692 -0.230769  0.461538      2.000000
 -0.230769 -0.230769  0.461538      2.000000
 -0.153846 -0.230769  0.461538      2.000000
 -0.076923 -0.230769  0.461538      2.000000
 -0.000000 -0.153846  0.461538      2.000000
  0.076923 -0.153846  0.461538      2.000000
  0.153846 -0.153846  0.461538      2.000000
  0.230769 -0.153846  0.461538      2.000000
  0.307692 -0.153846  0.461538      2.000000
  0.384615 -0.153846  0.461538      2.000000
  0.461538 -0.153846  0.461538      2.000000
 -0.461538 -0.153846  0.461538      2.000000
 -0.384615 -0.153846  0.461538      2.000000
 -0.307692 -0.153846  0.461538      2.000000
 -0.230769 -0.153846  0.461538      2.000000
 -0.153846 -0.153846  0.461538      2.000000
 -0.076923 -0.153846  0.461538      2.000000
  0.000000 -0.076923  0.461538      2.000000
  0.076923 -0.076923  0.461538      2.000000
  0.153846 -0.076923  0.461538      2.000000
  0.230769 -0.076923  0.461538      2.000000
  0.307692 -0.076923  0.461538      2.000000
  0.384615 -0.076923  0.461538      2.000000
  0.461538 -0.076923  0.461538      2.000000
 -0.461538 -0.076923  0.461538      2.000000
 -0.384615 -0.076923  0.461538      2.000000
 -0.307692 -0.076923  0.461538      2.000000
 -0.230769 -0.076923  0.461538      2.000000
 -0.153846 -0.076923  0.461538      2.000000
 -0.076923 -0.076923  0.461538      2.000000
 
 Following cartesian coordinates:
            Coordinates               Weight
  0.000000  0.000000  0.000000      1.000000
 -0.019318  0.019319  0.019319      2.000000
 -0.038635  0.038638  0.038638      2.000000
 -0.057953  0.057957  0.057957      2.000000
 -0.077271  0.077277  0.077277      2.000000
 -0.096588  0.096596  0.096596      2.000000
 -0.115906  0.115915  0.115915      2.000000
  0.019319 -0.019318  0.019319      2.000000
  0.000001  0.000001  0.038638      2.000000
 -0.019316  0.019321  0.057957      2.000000
 -0.038634  0.038640  0.077277      2.000000
 -0.057951  0.057959  0.096596      2.000000
 -0.077269  0.077278  0.115915      2.000000
 -0.096587  0.096597  0.135234      2.000000
  0.135225 -0.135232 -0.096596      2.000000
  0.115907 -0.115913 -0.077277      2.000000
  0.096590 -0.096594 -0.057957      2.000000
  0.077272 -0.077275 -0.038638      2.000000
  0.057954 -0.057956 -0.019319      2.000000
  0.038637 -0.038637  0.000000      2.000000
  0.038638 -0.038635  0.038638      2.000000
  0.019321 -0.019316  0.057957      2.000000
  0.000003  0.000003  0.077277      2.000000
 -0.019315  0.019322  0.096596      2.000000
 -0.038632  0.038641  0.115915      2.000000
 -0.057950  0.057960  0.135234      2.000000
 -0.077268  0.077279  0.154553      2.000000
  0.154544 -0.154550 -0.077277      2.000000
  0.135226 -0.135231 -0.057957      2.000000
  0.115909 -0.115912 -0.038638      2.000000
  0.096591 -0.096593 -0.019319      2.000000
  0.077274 -0.077274  0.000000      2.000000
  0.057956 -0.057954  0.019319      2.000000
  0.057957 -0.057953  0.057957      2.000000
  0.038640 -0.038634  0.077277      2.000000
  0.019322 -0.019315  0.096596      2.000000
  0.000004  0.000004  0.115915      2.000000
 -0.019313  0.019324  0.135234      2.000000
 -0.038631  0.038643  0.154553      2.000000
 -0.057949  0.057962  0.173872      2.000000
  0.173863 -0.173868 -0.057957      2.000000
  0.154546 -0.154549 -0.038638      2.000000
  0.135228 -0.135229 -0.019319      2.000000
  0.115910 -0.115910  0.000000      2.000000
  0.096593 -0.096591  0.019319      2.000000
  0.077275 -0.077272  0.038638      2.000000
  0.077277 -0.077271  0.077277      2.000000
  0.057959 -0.057951  0.096596      2.000000
  0.038641 -0.038632  0.115915      2.000000
  0.019324 -0.019313  0.135234      2.000000
  0.000006  0.000006  0.154553      2.000000
 -0.019312  0.019325  0.173872      2.000000
 -0.038629  0.038644  0.193191      2.000000
  0.193182 -0.193185 -0.038638      2.000000
  0.173865 -0.173866 -0.019319      2.000000
  0.154547 -0.154547  0.000000      2.000000
  0.135229 -0.135228  0.019319      2.000000
  0.115912 -0.115909  0.038638      2.000000
  0.096594 -0.096590  0.057957      2.000000
  0.096596 -0.096588  0.096596      2.000000
  0.077278 -0.077269  0.115915      2.000000
  0.057960 -0.057950  0.135234      2.000000
  0.038643 -0.038631  0.154553      2.000000
  0.019325 -0.019312  0.173872      2.000000
  0.000007  0.000007  0.193191      2.000000
 -0.019310  0.019327  0.212510      2.000000
  0.212502 -0.212503 -0.019319      2.000000
  0.193184 -0.193184  0.000000      2.000000
  0.173866 -0.173865  0.019319      2.000000
  0.154549 -0.154546  0.038638      2.000000
  0.135231 -0.135227  0.057957      2.000000
  0.115913 -0.115907  0.077277      2.000000
  0.115915 -0.115906  0.115915      2.000000
  0.096597 -0.096587  0.135234      2.000000
  0.077279 -0.077268  0.154553      2.000000
  0.057962 -0.057949  0.173872      2.000000
  0.038644 -0.038629  0.193191      2.000000
  0.019327 -0.019310  0.212510      2.000000
  0.000009  0.000009  0.231830      2.000000
  0.231821 -0.231821  0.000000      2.000000
  0.212503 -0.212502  0.019319      2.000000
  0.193185 -0.193182  0.038638      2.000000
  0.173868 -0.173863  0.057957      2.000000
  0.154550 -0.154544  0.077277      2.000000
  0.135232 -0.135225  0.096596      2.000000
  0.019319  0.019319 -0.019318      2.000000
  0.000001  0.038638  0.000001      2.000000
 -0.019316  0.057957  0.019321      2.000000
 -0.038634  0.077277  0.038640      2.000000
 -0.057951  0.096596  0.057959      2.000000
 -0.077269  0.115915  0.077278      2.000000
 -0.096587  0.135234  0.096597      2.000000
  0.135225 -0.096596 -0.135232      2.000000
  0.115907 -0.077277 -0.115913      2.000000
  0.096590 -0.057957 -0.096594      2.000000
  0.077272 -0.038638 -0.077275      2.000000
  0.057954 -0.019319 -0.057956      2.000000
  0.038637 -0.000000 -0.038637      2.000000
  0.038638  0.000001  0.000001      2.000000
  0.019321  0.019321  0.019321      2.000000
  0.000003  0.038640  0.038640      2.000000
 -0.019315  0.057959  0.057959      2.000000
 -0.038632  0.077278  0.077278      2.000000
 -0.057950  0.096597  0.096597      2.000000
 -0.077268  0.115916  0.115916      2.000000
  0.154544 -0.115913 -0.115913      2.000000
  0.135226 -0.096594 -0.096594      2.000000
  0.115909 -0.077275 -0.077275      2.000000
  0.096591 -0.057956 -0.057956      2.000000
  0.077274 -0.038637 -0.038637      2.000000
  0.057956 -0.019318 -0.019318      2.000000
  0.057957 -0.019316  0.019321      2.000000
  0.038640  0.000003  0.038640      2.000000
  0.019322  0.019322  0.057959      2.000000
  0.000004  0.038641  0.077278      2.000000
 -0.019313  0.057960  0.096597      2.000000
 -0.038631  0.077279  0.115916      2.000000
 -0.057949  0.096599  0.135235      2.000000
  0.173863 -0.135231 -0.096594      2.000000
  0.154546 -0.115912 -0.077275      2.000000
  0.135228 -0.096593 -0.057956      2.000000
  0.115910 -0.077274 -0.038637      2.000000
  0.096593 -0.057954 -0.019318      2.000000
  0.077275 -0.038635  0.000001      2.000000
  0.077277 -0.038634  0.038640      2.000000
  0.057959 -0.019315  0.057959      2.000000
  0.038641  0.000004  0.077278      2.000000
  0.019324  0.019324  0.096597      2.000000
  0.000006  0.038643  0.115916      2.000000
 -0.019312  0.057962  0.135235      2.000000
 -0.038629  0.077281  0.154554      2.000000
  0.193182 -0.154549 -0.077275      2.000000
  0.173865 -0.135229 -0.057956      2.000000
  0.154547 -0.115910 -0.038637      2.000000
  0.135229 -0.096591 -0.019318      2.000000
  0.115912 -0.077272  0.000001      2.000000
  0.096594 -0.057953  0.019321      2.000000
  0.096596 -0.057951  0.057959      2.000000
  0.077278 -0.038632  0.077278      2.000000
  0.057960 -0.019313  0.096597      2.000000
  0.038643  0.000006  0.115916      2.000000
  0.019325  0.019325  0.135235      2.000000
  0.000007  0.038644  0.154554      2.000000
 -0.019310  0.057963  0.173874      2.000000
  0.212502 -0.173866 -0.057956      2.000000
  0.193184 -0.154547 -0.038637      2.000000
  0.173866 -0.135228 -0.019318      2.000000
  0.154549 -0.115909  0.000001      2.000000
  0.135231 -0.096590  0.019321      2.000000
  0.115913 -0.077271  0.038640      2.000000
  0.115915 -0.077269  0.077278      2.000000
  0.096597 -0.057950  0.096597      2.000000
  0.077279 -0.038631  0.115916      2.000000
  0.057962 -0.019312  0.135235      2.000000
  0.038644  0.000007  0.154554      2.000000
  0.019327  0.019327  0.173874      2.000000
  0.000009  0.038646  0.193193      2.000000
  0.231821 -0.193184 -0.038637      2.000000
  0.212503 -0.173865 -0.019318      2.000000
  0.193185 -0.154546  0.000001      2.000000
  0.173868 -0.135227  0.019321      2.000000
  0.154550 -0.115907  0.038640      2.000000
  0.135232 -0.096588  0.057959      2.000000
  0.135234 -0.096587  0.096597      2.000000
  0.115916 -0.077268  0.115916      2.000000
  0.096599 -0.057949  0.135235      2.000000
  0.077281 -0.038629  0.154554      2.000000
  0.057963 -0.019310  0.173874      2.000000
  0.038646  0.000009  0.193193      2.000000
  0.019328  0.019328  0.212512      2.000000
  0.251140 -0.212502 -0.019318      2.000000
  0.231822 -0.193182  0.000001      2.000000
  0.212504 -0.173863  0.019321      2.000000
  0.193187 -0.154544  0.038640      2.000000
  0.173869 -0.135225  0.057959      2.000000
  0.154552 -0.115906  0.077278      2.000000
 -0.096596  0.135225 -0.135232      2.000000
 -0.115913  0.154544 -0.115913      2.000000
 -0.135231  0.173863 -0.096594      2.000000
 -0.154549  0.193182 -0.077275      2.000000
 -0.173866  0.212502 -0.057956      2.000000
 -0.193184  0.231821 -0.038637      2.000000
 -0.212502  0.251140 -0.019318      2.000000
  0.019310  0.019310 -0.251147      2.000000
 -0.000007  0.038629 -0.231828      2.000000
 -0.019325  0.057949 -0.212509      2.000000
 -0.038643  0.077268 -0.193190      2.000000
 -0.057960  0.096587 -0.173871      2.000000
 -0.077278  0.115906 -0.154552      2.000000
 -0.077277  0.115907 -0.115913      2.000000
 -0.096594  0.135226 -0.096594      2.000000
 -0.115912  0.154546 -0.077275      2.000000
 -0.135229  0.173865 -0.057956      2.000000
 -0.154547  0.193184 -0.038637      2.000000
 -0.173865  0.212503 -0.019318      2.000000
 -0.193182  0.231822  0.000001      2.000000
  0.038629 -0.000007 -0.231828      2.000000
  0.019312  0.019312 -0.212509      2.000000
 -0.000006  0.038631 -0.193190      2.000000
 -0.019324  0.057950 -0.173871      2.000000
 -0.038641  0.077269 -0.154552      2.000000
 -0.057959  0.096588 -0.135232      2.000000
 -0.057957  0.096590 -0.096594      2.000000
 -0.077275  0.115909 -0.077275      2.000000
 -0.096593  0.135228 -0.057956      2.000000
 -0.115910  0.154547 -0.038637      2.000000
 -0.135228  0.173866 -0.019318      2.000000
 -0.154546  0.193185  0.000001      2.000000
 -0.173863  0.212504  0.019321      2.000000
  0.057949 -0.019325 -0.212509      2.000000
  0.038631 -0.000006 -0.193190      2.000000
  0.019313  0.019313 -0.173871      2.000000
 -0.000004  0.038632 -0.154552      2.000000
 -0.019322  0.057951 -0.135232      2.000000
 -0.038640  0.077271 -0.115913      2.000000
 -0.038638  0.077272 -0.077275      2.000000
 -0.057956  0.096591 -0.057956      2.000000
 -0.077274  0.115910 -0.038637      2.000000
 -0.096591  0.135229 -0.019318      2.000000
 -0.115909  0.154549  0.000001      2.000000
 -0.135227  0.173868  0.019321      2.000000
 -0.154544  0.193187  0.038640      2.000000
  0.077268 -0.038643 -0.193190      2.000000
  0.057950 -0.019324 -0.173871      2.000000
  0.038632 -0.000004 -0.154552      2.000000
  0.019315  0.019315 -0.135232      2.000000
 -0.000003  0.038634 -0.115913      2.000000
 -0.019321  0.057953 -0.096594      2.000000
 -0.019319  0.057954 -0.057956      2.000000
 -0.038637  0.077274 -0.038637      2.000000
 -0.057954  0.096593 -0.019318      2.000000
 -0.077272  0.115912  0.000001      2.000000
 -0.096590  0.135231  0.019321      2.000000
 -0.115907  0.154550  0.038640      2.000000
 -0.135225  0.173869  0.057959      2.000000
  0.096587 -0.057960 -0.173871      2.000000
  0.077269 -0.038641 -0.154552      2.000000
  0.057951 -0.019322 -0.135232      2.000000
  0.038634 -0.000003 -0.115913      2.000000
  0.019316  0.019316 -0.096594      2.000000
 -0.000001  0.038635 -0.077275      2.000000
 -0.000000  0.038637 -0.038637      2.000000
 -0.019318  0.057956 -0.019318      2.000000
 -0.038635  0.077275  0.000001      2.000000
 -0.057953  0.096594  0.019321      2.000000
 -0.077271  0.115913  0.038640      2.000000
 -0.096588  0.135232  0.057959      2.000000
 -0.115906  0.154552  0.077278      2.000000
  0.115906 -0.077278 -0.154552      2.000000
  0.096588 -0.057959 -0.135232      2.000000
  0.077271 -0.038640 -0.115913      2.000000
  0.057953 -0.019321 -0.096594      2.000000
  0.038635 -0.000001 -0.077275      2.000000
  0.019318  0.019318 -0.057956      2.000000
  0.038638  0.038638 -0.038635      2.000000
  0.019321  0.057957 -0.019316      2.000000
  0.000003  0.077277  0.000003      2.000000
 -0.019315  0.096596  0.019322      2.000000
 -0.038632  0.115915  0.038641      2.000000
 -0.057950  0.135234  0.057960      2.000000
 -0.077268  0.154553  0.077279      2.000000
  0.154544 -0.077277 -0.154550      2.000000
  0.135226 -0.057957 -0.135231      2.000000
  0.115909 -0.038638 -0.115912      2.000000
  0.096591 -0.019319 -0.096593      2.000000
  0.077274 -0.000000 -0.077274      2.000000
  0.057956  0.019319 -0.057954      2.000000
  0.057957  0.019321 -0.019316      2.000000
  0.038640  0.038640  0.000003      2.000000
  0.019322  0.057959  0.019322      2.000000
  0.000004  0.077278  0.038641      2.000000
 -0.019313  0.096597  0.057960      2.000000
 -0.038631  0.115916  0.077279      2.000000
 -0.057949  0.135235  0.096599      2.000000
  0.173863 -0.096594 -0.135231      2.000000
  0.154546 -0.077275 -0.115912      2.000000
  0.135228 -0.057956 -0.096593      2.000000
  0.115910 -0.038637 -0.077274      2.000000
  0.096593 -0.019318 -0.057954      2.000000
  0.077275  0.000001 -0.038635      2.000000
  0.077277  0.000003  0.000003      2.000000
  0.057959  0.019322  0.019322      2.000000
  0.038641  0.038641  0.038641      2.000000
  0.019324  0.057960  0.057960      2.000000
  0.000006  0.077279  0.077279      2.000000
 -0.019312  0.096599  0.096599      2.000000
 -0.038629  0.115918  0.115918      2.000000
  0.193182 -0.115912 -0.115912      2.000000
  0.173865 -0.096593 -0.096593      2.000000
  0.154547 -0.077274 -0.077274      2.000000
  0.135229 -0.057954 -0.057954      2.000000
  0.115912 -0.038635 -0.038635      2.000000
  0.096594 -0.019316 -0.019316      2.000000
  0.096596 -0.019315  0.019322      2.000000
  0.077278  0.000004  0.038641      2.000000
  0.057960  0.019324  0.057960      2.000000
  0.038643  0.038643  0.077279      2.000000
  0.019325  0.057962  0.096599      2.000000
  0.000007  0.077281  0.115918      2.000000
 -0.019310  0.096600  0.135237      2.000000
  0.212502 -0.135229 -0.096593      2.000000
  0.193184 -0.115910 -0.077274      2.000000
  0.173866 -0.096591 -0.057954      2.000000
  0.154549 -0.077272 -0.038635      2.000000
  0.135231 -0.057953 -0.019316      2.000000
  0.115913 -0.038634  0.000003      2.000000
  0.115915 -0.038632  0.038641      2.000000
  0.096597 -0.019313  0.057960      2.000000
  0.077279  0.000006  0.077279      2.000000
  0.057962  0.019325  0.096599      2.000000
  0.038644  0.038644  0.115918      2.000000
  0.019327  0.057963  0.135237      2.000000
  0.000009  0.077282  0.154556      2.000000
  0.231821 -0.154547 -0.077274      2.000000
  0.212503 -0.135228 -0.057954      2.000000
  0.193185 -0.115909 -0.038635      2.000000
  0.173868 -0.096590 -0.019316      2.000000
  0.154550 -0.077271  0.000003      2.000000
  0.135232 -0.057951  0.019322      2.000000
  0.135234 -0.057950  0.057960      2.000000
  0.115916 -0.038631  0.077279      2.000000
  0.096599 -0.019312  0.096599      2.000000
  0.077281  0.000007  0.115918      2.000000
  0.057963  0.019327  0.135237      2.000000
  0.038646  0.038646  0.154556      2.000000
  0.019328  0.057965  0.173875      2.000000
  0.251140 -0.173865 -0.057954      2.000000
  0.231822 -0.154546 -0.038635      2.000000
  0.212504 -0.135227 -0.019316      2.000000
  0.193187 -0.115907  0.000003      2.000000
  0.173869 -0.096588  0.019322      2.000000
  0.154552 -0.077269  0.038641      2.000000
  0.154553 -0.077268  0.077279      2.000000
  0.135235 -0.057949  0.096599      2.000000
  0.115918 -0.038629  0.115918      2.000000
  0.096600 -0.019310  0.135237      2.000000
  0.077282  0.000009  0.154556      2.000000
  0.057965  0.019328  0.173875      2.000000
  0.038647  0.038647  0.193194      2.000000
  0.270459 -0.193182 -0.038635      2.000000
  0.251141 -0.173863 -0.019316      2.000000
  0.231824 -0.154544  0.000003      2.000000
  0.212506 -0.135225  0.019322      2.000000
  0.193188 -0.115906  0.038641      2.000000
  0.173871 -0.096587  0.057960      2.000000
 -0.077277  0.154544 -0.154550      2.000000
 -0.096594  0.173863 -0.135231      2.000000
 -0.115912  0.193182 -0.115912      2.000000
 -0.135229  0.212502 -0.096593      2.000000
 -0.154547  0.231821 -0.077274      2.000000
 -0.173865  0.251140 -0.057954      2.000000
 -0.193182  0.270459 -0.038635      2.000000
  0.038629  0.038629 -0.270465      2.000000
  0.019312  0.057949 -0.251146      2.000000
 -0.000006  0.077268 -0.231827      2.000000
 -0.019324  0.096587 -0.212507      2.000000
 -0.038641  0.115906 -0.193188      2.000000
 -0.057959  0.135225 -0.173869      2.000000
 -0.057957  0.135226 -0.135231      2.000000
 -0.077275  0.154546 -0.115912      2.000000
 -0.096593  0.173865 -0.096593      2.000000
 -0.115910  0.193184 -0.077274      2.000000
 -0.135228  0.212503 -0.057954      2.000000
 -0.154546  0.231822 -0.038635      2.000000
 -0.173863  0.251141 -0.019316      2.000000
  0.057949  0.019312 -0.251146      2.000000
  0.038631  0.038631 -0.231827      2.000000
  0.019313  0.057950 -0.212507      2.000000
 -0.000004  0.077269 -0.193188      2.000000
 -0.019322  0.096588 -0.173869      2.000000
 -0.038640  0.115907 -0.154550      2.000000
 -0.038638  0.115909 -0.115912      2.000000
 -0.057956  0.135228 -0.096593      2.000000
 -0.077274  0.154547 -0.077274      2.000000
 -0.096591  0.173866 -0.057954      2.000000
 -0.115909  0.193185 -0.038635      2.000000
 -0.135227  0.212504 -0.019316      2.000000
 -0.154544  0.231824  0.000003      2.000000
  0.077268 -0.000006 -0.231827      2.000000
  0.057950  0.019313 -0.212507      2.000000
  0.038632  0.038632 -0.193188      2.000000
  0.019315  0.057951 -0.173869      2.000000
 -0.000003  0.077271 -0.154550      2.000000
 -0.019321  0.096590 -0.135231      2.000000
 -0.019319  0.096591 -0.096593      2.000000
 -0.038637  0.115910 -0.077274      2.000000
 -0.057954  0.135229 -0.057954      2.000000
 -0.077272  0.154549 -0.038635      2.000000
 -0.096590  0.173868 -0.019316      2.000000
 -0.115907  0.193187  0.000003      2.000000
 -0.135225  0.212506  0.019322      2.000000
  0.096587 -0.019324 -0.212507      2.000000
  0.077269 -0.000004 -0.193188      2.000000
  0.057951  0.019315 -0.173869      2.000000
  0.038634  0.038634 -0.154550      2.000000
  0.019316  0.057953 -0.135231      2.000000
 -0.000001  0.077272 -0.115912      2.000000
 -0.000000  0.077274 -0.077274      2.000000
 -0.019318  0.096593 -0.057954      2.000000
 -0.038635  0.115912 -0.038635      2.000000
 -0.057953  0.135231 -0.019316      2.000000
 -0.077271  0.154550  0.000003      2.000000
 -0.096588  0.173869  0.019322      2.000000
 -0.115906  0.193188  0.038641      2.000000
  0.115906 -0.038641 -0.193188      2.000000
  0.096588 -0.019322 -0.173869      2.000000
  0.077271 -0.000003 -0.154550      2.000000
  0.057953  0.019316 -0.135231      2.000000
  0.038635  0.038635 -0.115912      2.000000
  0.019318  0.057954 -0.096593      2.000000
  0.019319  0.057956 -0.057954      2.000000
  0.000001  0.077275 -0.038635      2.000000
 -0.019316  0.096594 -0.019316      2.000000
 -0.038634  0.115913  0.000003      2.000000
 -0.057951  0.135232  0.019322      2.000000
 -0.077269  0.154552  0.038641      2.000000
 -0.096587  0.173871  0.057960      2.000000
  0.135225 -0.057959 -0.173869      2.000000
  0.115907 -0.038640 -0.154550      2.000000
  0.096590 -0.019321 -0.135231      2.000000
  0.077272 -0.000001 -0.115912      2.000000
  0.057954  0.019318 -0.096593      2.000000
  0.038637  0.038637 -0.077274      2.000000
  0.057957  0.057957 -0.057953      2.000000
  0.038640  0.077277 -0.038634      2.000000
  0.019322  0.096596 -0.019315      2.000000
  0.000004  0.115915  0.000004      2.000000
 -0.019313  0.135234  0.019324      2.000000
 -0.038631  0.154553  0.038643      2.000000
 -0.057949  0.173872  0.057962      2.000000
  0.173863 -0.057957 -0.173868      2.000000
  0.154546 -0.038638 -0.154549      2.000000
  0.135228 -0.019319 -0.135229      2.000000
  0.115910 -0.000000 -0.115910      2.000000
  0.096593  0.019319 -0.096591      2.000000
  0.077275  0.038638 -0.077272      2.000000
  0.077277  0.038640 -0.038634      2.000000
  0.057959  0.057959 -0.019315      2.000000
  0.038641  0.077278  0.000004      2.000000
  0.019324  0.096597  0.019324      2.000000
  0.000006  0.115916  0.038643      2.000000
 -0.019312  0.135235  0.057962      2.000000
 -0.038629  0.154554  0.077281      2.000000
  0.193182 -0.077275 -0.154549      2.000000
  0.173865 -0.057956 -0.135229      2.000000
  0.154547 -0.038637 -0.115910      2.000000
  0.135229 -0.019318 -0.096591      2.000000
  0.115912  0.000001 -0.077272      2.000000
  0.096594  0.019321 -0.057953      2.000000
  0.096596  0.019322 -0.019315      2.000000
  0.077278  0.038641  0.000004      2.000000
  0.057960  0.057960  0.019324      2.000000
  0.038643  0.077279  0.038643      2.000000
  0.019325  0.096599  0.057962      2.000000
  0.000007  0.115918  0.077281      2.000000
 -0.019310  0.135237  0.096600      2.000000
  0.212502 -0.096593 -0.135229      2.000000
  0.193184 -0.077274 -0.115910      2.000000
  0.173866 -0.057954 -0.096591      2.000000
  0.154549 -0.038635 -0.077272      2.000000
  0.135231 -0.019316 -0.057953      2.000000
  0.115913  0.000003 -0.038634      2.000000
  0.115915  0.000004  0.000004      2.000000
  0.096597  0.019324  0.019324      2.000000
  0.077279  0.038643  0.038643      2.000000
  0.057962  0.057962  0.057962      2.000000
  0.038644  0.077281  0.077281      2.000000
  0.019327  0.096600  0.096600      2.000000
  0.000009  0.115919  0.115919      2.000000
  0.231821 -0.115910 -0.115910      2.000000
[...]
      7      15.9543      0.00000
      8      19.6492      0.00000
      9      20.0040      0.00000
     10      28.1685      0.00000
     11      29.8343      0.00000
     12      33.0814      0.00000

 k-point  1073 :      -0.0769   -0.2308    0.4615
  band No.  band energies     occupation 
      1     -43.3523      2.00000
      2     -22.0832      2.00000
      3      -3.8319      2.00000
      4      -2.5462      2.00000
      5      -1.9405      2.00000
      6      12.2662      0.00000
      7      16.0729      0.00000
      8      19.5037      0.00000
      9      19.9394      0.00000
     10      26.6458      0.00000
     11      31.3525      0.00000
     12      34.6980      0.00000

 k-point  1074 :      -0.0000   -0.1538    0.4615
  band No.  band energies     occupation 
      1     -43.3534      2.00000
      2     -22.1122      2.00000
      3      -3.9301      2.00000
      4      -2.2731      2.00000
      5      -1.8339      2.00000
      6      11.6136      0.00000
      7      16.3608      0.00000
      8      19.5934      0.00000
      9      19.6358      0.00000
     10      28.1940      0.00000
     11      32.1948      0.00000
     12      32.3332      0.00000

 k-point  1075 :       0.0769   -0.1538    0.4615
  band No.  band energies     occupation 
      1     -43.3504      2.00000
      2     -22.0700      2.00000
      3      -3.8557      2.00000
      4      -2.6399      2.00000
      5      -1.9047      2.00000
      6      12.2477      0.00000
      7      15.9715      0.00000
      8      19.5238      0.00000
      9      19.8497      0.00000
     10      28.0149      0.00000
     11      30.1389      0.00000
     12      34.3075      0.00000

 k-point  1076 :       0.1538   -0.1538    0.4615
  band No.  band energies     occupation 
      1     -43.3470      2.00000
      2     -22.0174      2.00000
      3      -3.7586      2.00000
      4      -3.0315      2.00000
      5      -2.0382      2.00000
      6      13.1672      0.00000
      7      15.6019      0.00000
      8      19.1985      0.00000
      9      20.0186      0.00000
     10      27.4324      0.00000
     11      29.3190      0.00000
     12      36.7242      0.00000

 k-point  1077 :       0.2308   -0.1538    0.4615
  band No.  band energies     occupation 
      1     -43.3439      2.00000
      2     -21.9661      2.00000
      3      -3.8688      2.00000
      4      -3.1406      2.00000
      5      -2.1916      2.00000
      6      14.1581      0.00000
      7      15.4128      0.00000
      8      18.5860      0.00000
      9      20.1767      0.00000
     10      25.6624      0.00000
     11      30.7876      0.00000
     12      35.9689      0.00000

 k-point  1078 :       0.3077   -0.1538    0.4615
  band No.  band energies     occupation 
      1     -43.3419      2.00000
      2     -21.9287      2.00000
      3      -4.1453      2.00000
      4      -2.9788      2.00000
      5      -2.3130      2.00000
      6      14.8038      0.00000
      7      15.5005      0.00000
      8      18.0880      0.00000
      9      20.3403      0.00000
     10      24.0956      0.00000
     11      32.9359      0.00000
     12      35.2173      0.00000

 k-point  1079 :       0.3846   -0.1538    0.4615
  band No.  band energies     occupation 
      1     -43.3415      2.00000
      2     -21.9136      2.00000
      3      -4.3253      2.00000
      4      -2.8141      2.00000
      5      -2.3679      2.00000
      6      14.9871      0.00000
      7      15.4990      0.00000
      8      18.2204      0.00000
      9      20.5155      0.00000
     10      22.8696      0.00000
     11      34.7821      0.00000
     12      35.5029      0.00000

 k-point  1080 :       0.4615   -0.1538    0.4615
  band No.  band energies     occupation 
      1     -43.3427      2.00000
      2     -21.9249      2.00000
      3      -4.3338      2.00000
      4      -2.7270      2.00000
      5      -2.3631      2.00000
      6      14.7366      0.00000
      7      15.5967      0.00000
      8      18.5257      0.00000
      9      20.6250      0.00000
     10      22.3472      0.00000
     11      34.7614      0.00000
     12      38.0979      0.00000

 k-point  1081 :      -0.4615   -0.1538    0.4615
  band No.  band energies     occupation 
      1     -43.3452      2.00000
      2     -21.9597      2.00000
      3      -4.1703      2.00000
      4      -2.7367      2.00000
      5      -2.3051      2.00000
      6      14.2849      0.00000
      7      15.7740      0.00000
      8      18.5750      0.00000
      9      20.5122      0.00000
     10      22.9547      0.00000
     11      34.0686      0.00000
     12      36.3521      0.00000

 k-point  1082 :      -0.3846   -0.1538    0.4615
  band No.  band energies     occupation 
      1     -43.3485      2.00000
      2     -22.0094      2.00000
      3      -3.8920      2.00000
      4      -2.8388      2.00000
      5      -2.1679      2.00000
      6      13.7141      0.00000
      7      15.7344      0.00000
      8      18.8413      0.00000
      9      20.3566      0.00000
     10      24.2817      0.00000
     11      32.1936      0.00000
     12      36.7532      0.00000

 k-point  1083 :      -0.3077   -0.1538    0.4615
  band No.  band energies     occupation 
      1     -43.3519      2.00000
      2     -22.0623      2.00000
      3      -3.6640      2.00000
      4      -2.8747      2.00000
      5      -1.9847      2.00000
      6      12.9420      0.00000
      7      15.7345      0.00000
      8      19.3418      0.00000
      9      20.1888      0.00000
     10      26.0606      0.00000
     11      30.6027      0.00000
     12      35.7720      0.00000

 k-point  1084 :      -0.2308   -0.1538    0.4615
  band No.  band energies     occupation 
      1     -43.3545      2.00000
      2     -22.1070      2.00000
      3      -3.6907      2.00000
      4      -2.6466      2.00000
      5      -1.8209      2.00000
      6      12.1465      0.00000
      7      15.9543      0.00000
      8      19.6492      0.00000
      9      20.0040      0.00000
     10      28.1685      0.00000
     11      29.8343      0.00000
     12      33.0814      0.00000

 k-point  1085 :      -0.1538   -0.1538    0.4615
  band No.  band energies     occupation 
      1     -43.3557      2.00000
      2     -22.1327      2.00000
      3      -3.8251      2.00000
      4      -2.3337      2.00000
      5      -1.7452      2.00000
      6      11.5734      0.00000
      7      16.2957      0.00000
      8      19.6196      0.00000
      9      19.8154      0.00000
     10      29.4439      0.00000
     11      30.8481      0.00000
     12      31.1460      0.00000

 k-point  1086 :      -0.0769   -0.1538    0.4615
  band No.  band energies     occupation 
      1     -43.3554      2.00000
      2     -22.1347      2.00000
      3      -3.9197      2.00000
      4      -2.1503      2.00000
      5      -1.7833      2.00000
      6      11.3777      0.00000
      7      16.5107      0.00000
      8      19.4945      0.00000
      9      19.6826      0.00000
     10      29.0327      0.00000
     11      30.8038      0.00000
     12      32.9086      0.00000

 k-point  1087 :       0.0000   -0.0769    0.4615
  band No.  band energies     occupation 
      1     -43.3570      2.00000
      2     -22.1633      2.00000
      3      -3.9932      2.00000
      4      -1.8590      2.00000
      5      -1.7116      2.00000
      6      10.8733      0.00000
      7      16.8897      0.00000
      8      19.3801      0.00000
      9      19.4598      0.00000
     10      30.5832      0.00000
     11      31.5074      0.00000
     12      31.6694      0.00000

 k-point  1088 :       0.0769   -0.0769    0.4615
  band No.  band energies     occupation 
      1     -43.3554      2.00000
      2     -22.1348      2.00000
      3      -3.9197      2.00000
      4      -2.1504      2.00000
      5      -1.7831      2.00000
      6      11.3777      0.00000
      7      16.5108      0.00000
      8      19.4960      0.00000
      9      19.6813      0.00000
     10      29.0324      0.00000
     11      30.8027      0.00000
     12      32.9102      0.00000

 k-point  1089 :       0.1538   -0.0769    0.4615
  band No.  band energies     occupation 
      1     -43.3523      2.00000
      2     -22.0832      2.00000
      3      -3.8319      2.00000
      4      -2.5462      2.00000
      5      -1.9404      2.00000
      6      12.2661      0.00000
      7      16.0732      0.00000
      8      19.5047      0.00000
      9      19.9385      0.00000
     10      26.6460      0.00000
     11      31.3518      0.00000
     12      34.6983      0.00000

 k-point  1090 :       0.2308   -0.0769    0.4615
  band No.  band energies     occupation 
      1     -43.3487      2.00000
      2     -22.0202      2.00000
      3      -3.8949      2.00000
      4      -2.7845      2.00000
      5      -2.1308      2.00000
      6      13.3346      0.00000
      7      15.7874      0.00000
      8      19.1505      0.00000
      9      20.2347      0.00000
     10      24.5586      0.00000
     11      32.5906      0.00000
     12      36.2535      0.00000

 k-point  1091 :       0.3077   -0.0769    0.4615
  band No.  band energies     occupation 
      1     -43.3452      2.00000
      2     -21.9598      2.00000
      3      -4.1702      2.00000
      4      -2.7370      2.00000
      5      -2.3047      2.00000
      6      14.2852      0.00000
      7      15.7739      0.00000
      8      18.5752      0.00000
      9      20.5131      0.00000
     10      22.9540      0.00000
     11      34.0693      0.00000
     12      36.3533      0.00000

 k-point  1092 :       0.3846   -0.0769    0.4615
  band No.  band energies     occupation 
      1     -43.3428      2.00000
      2     -21.9165      2.00000
      3      -4.4305      2.00000
      4      -2.6107      2.00000
      5      -2.4222      2.00000
      6      14.8182      0.00000
      7      15.9622      0.00000
      8      18.1908      0.00000
      9      20.7269      0.00000
     10      21.8346      0.00000
     11      34.4788      0.00000
     12      37.6803      0.00000

 k-point  1093 :       0.4615   -0.0769    0.4615
  band No.  band energies     occupation 
      1     -43.3420      2.00000
      2     -21.9006      2.00000
      3      -4.5296      2.00000
      4      -2.5588      2.00000
      5      -2.4591      2.00000
      6      14.9817      0.00000
      7      16.0093      0.00000
      8      18.1598      0.00000
      9      20.8535      0.00000
     10      21.3456      0.00000
     11      34.3842      0.00000
     12      38.8531      0.00000

 k-point  1094 :      -0.4615   -0.0769    0.4615
  band No.  band energies     occupation 
      1     -43.3428      2.00000
      2     -21.9165      2.00000
      3      -4.4305      2.00000
      4      -2.6107      2.00000
      5      -2.4222      2.00000
      6      14.8181      0.00000
      7      15.9622      0.00000
      8      18.1907      0.00000
      9      20.7270      0.00000
     10      21.8345      0.00000
     11      34.4786      0.00000
     12      37.6795      0.00000

 k-point  1095 :      -0.3846   -0.0769    0.4615
  band No.  band energies     occupation 
      1     -43.3452      2.00000
      2     -21.9597      2.00000
      3      -4.1703      2.00000
      4      -2.7369      2.00000
      5      -2.3047      2.00000
      6      14.2852      0.00000
      7      15.7737      0.00000
      8      18.5749      0.00000
      9      20.5133      0.00000
     10      22.9537      0.00000
     11      34.0688      0.00000
     12      36.3521      0.00000

 k-point  1096 :      -0.3077   -0.0769    0.4615
  band No.  band energies     occupation 
      1     -43.3487      2.00000
      2     -22.0202      2.00000
      3      -3.8949      2.00000
      4      -2.7845      2.00000
      5      -2.1309      2.00000
      6      13.3346      0.00000
      7      15.7871      0.00000
      8      19.1500      0.00000
      9      20.2352      0.00000
     10      24.5582      0.00000
     11      32.5906      0.00000
     12      36.2533      0.00000

 k-point  1097 :      -0.2308   -0.0769    0.4615
  band No.  band energies     occupation 
      1     -43.3523      2.00000
      2     -22.0832      2.00000
      3      -3.8319      2.00000
      4      -2.5462      2.00000
      5      -1.9405      2.00000
      6      12.2662      0.00000
      7      16.0729      0.00000
      8      19.5037      0.00000
      9      19.9394      0.00000
     10      26.6458      0.00000
     11      31.3525      0.00000
     12      34.6980      0.00000

 k-point  1098 :      -0.1538   -0.0769    0.4615
  band No.  band energies     occupation 
      1     -43.3554      2.00000
      2     -22.1347      2.00000
      3      -3.9197      2.00000
      4      -2.1503      2.00000
      5      -1.7833      2.00000
      6      11.3777      0.00000
      7      16.5107      0.00000
      8      19.4945      0.00000
      9      19.6826      0.00000
     10      29.0327      0.00000
     11      30.8038      0.00000
     12      32.9086      0.00000

 k-point  1099 :      -0.0769   -0.0769    0.4615
  band No.  band energies     occupation 
      1     -43.3570      2.00000
      2     -22.1633      2.00000
      3      -3.9932      2.00000
      4      -1.8588      2.00000
      5      -1.7118      2.00000
      6      10.8733      0.00000
      7      16.8897      0.00000
      8      19.3785      0.00000
      9      19.4612      0.00000
     10      30.5855      0.00000
     11      31.5070      0.00000
     12      31.6671      0.00000


--------------------------------------------------------------------------------------------------------


 soft charge-density along one line, spin component           1
         0         1         2         3         4         5         6         7         8         9
 total charge-density along one line
 
 pseudopotential strength for first ion, spin component:           1
-39.566   3.261  -0.000   0.000  -0.000
  3.261  -9.571  -0.000   0.000  -0.000
 -0.000  -0.000   1.483   0.000   0.000
  0.000   0.000   0.000   1.483   0.000
 -0.000  -0.000   0.000   0.000   1.483
 total augmentation occupancy for first ion, spin component:           1
  1.999  -0.035   0.000  -0.000   0.000
 -0.035   0.568  -0.000   0.000  -0.000
  0.000  -0.000   0.008  -0.000  -0.000
 -0.000   0.000  -0.000   0.008  -0.000
  0.000  -0.000  -0.000  -0.000   0.008


------------------------ aborting loop because EDIFF is reached ----------------------------------------


    FORLOC:  cpu time    0.0019: real time    0.0019
    FORNL :  cpu time    0.1556: real time    0.1557
    STRESS:  cpu time   23.8615: real time   23.8645
    FORCOR:  cpu time    0.0227: real time    0.0234
    OFIELD:  cpu time    0.0002: real time    0.0002

  FORCE on cell =-STRESS in cart. coord.  units (eV):
  Direction    XX          YY          ZZ          XY          YZ          ZX
  --------------------------------------------------------------------------------------
  Alpha Z    20.76074    20.76074    20.76074
  Ewald    -187.87099  -187.87099  -187.87102    -0.00173    -0.00173    -0.00173
  Hartree    74.66085    74.66085    74.66084     0.00071     0.00071     0.00071
  E(xc)     -57.76907   -57.76907   -57.76907    -0.00003    -0.00003    -0.00003
  Local     -36.28672   -36.28672   -36.28668     0.00081     0.00081     0.00081
  n-local   -53.99690   -53.99690   -53.99690     0.00020     0.00020     0.00020
  augment    37.35352    37.35352    37.35352    -0.00023    -0.00023    -0.00023
  Kinetic   203.12834   203.12834   203.12834     0.00040     0.00040     0.00040
  Fock        0.00000     0.00000     0.00000     0.00000     0.00000     0.00000
  -------------------------------------------------------------------------------------
  Total      -0.02023    -0.02023    -0.02023     0.00013     0.00013     0.00013
  in kB      -2.05387    -2.05387    -2.05387     0.01285     0.01291     0.01292
  external pressure =       -2.05 kB  Pullay stress =        0.00 kB


 VOLUME and BASIS-vectors are now :
 -----------------------------------------------------------------------------
  energy-cutoff  :      520.00
  volume of cell :       15.78
      direct lattice vectors                 reciprocal lattice vectors
    -0.000152366  1.990776577  1.990776687    -0.251129434  0.251148663  0.251148642
     1.990776575 -0.000152359  1.990776680     0.251148663 -0.251129435  0.251148643
     1.990776636  1.990776630 -0.000152420     0.251148648  0.251148650 -0.251129414

  length of vectors
     2.815383316  2.815383310  2.815383319     0.434991130  0.434991133  0.434991115


 FORCES acting on ions:
    Electron-Ion                     Ewald-Force                    Non-Local-Force
 -----------------------------------------------------------------------------------------------
   -.141E-05 -.419E-05 0.894E-05   0.139E-05 0.412E-05 -.879E-05   0.176E-06 0.520E-06 -.109E-05
   0.119E-05 0.349E-05 -.745E-05   -.139E-05 -.412E-05 0.879E-05   0.230E-06 0.623E-06 -.125E-05
 -----------------------------------------------------------------------------------------------
   -.217E-06 -.695E-06 0.149E-05   -.439E-16 -.612E-15 0.746E-15   0.407E-06 0.114E-05 -.233E-05
 
 
 POSITION                                       TOTAL-FORCE (eV/Angst)
 -----------------------------------------------------------------------------------
      1.99078      1.99078     -0.00015         0.000000      0.000000     -0.000001
      1.99070      1.99070      1.99070        -0.000000     -0.000000      0.000001
 -----------------------------------------------------------------------------------
    total drift:                                0.000000      0.000000     -0.000001


--------------------------------------------------------------------------------------------------------



  FREE ENERGIE OF THE ION-ELECTRON SYSTEM (eV)
  ---------------------------------------------------
  free  energy   TOTEN  =       -11.90310897 eV

  energy  without entropy=      -11.90310897  energy(sigma->0) =      -11.90310897
 


--------------------------------------------------------------------------------------------------------


    POTLOK:  cpu time    0.2658: real time    0.2658


--------------------------------------------------------------------------------------------------------


 stress matrix after NEB project (eV)
     -0.02023      0.00013      0.00013
      0.00013     -0.02023      0.00013
      0.00013      0.00013     -0.02023
  FORCES: max atom, RMS     0.000001    0.000001
  FORCE total and by dimension    0.000001    0.000001
  Stress total and by dimension    0.035042    0.020231
 writing wavefunctions
     LOOP+:  cpu time   66.0087: real time   66.7945
    4ORBIT:  cpu time    0.0000: real time    0.0000

 total amount of memory used by VASP MPI-rank0    66998. kBytes
=======================================================================

   base      :      30000. kBytes
   nonl-proj :      16321. kBytes
   fftplans  :        344. kBytes
   grid      :        707. kBytes
   one-center:          3. kBytes
   wavefun   :      19623. kBytes
 
  
  
 General timing and accounting informations for this job:
 ========================================================
  
                  Total CPU time used (sec):       70.732
                            User time (sec):       63.919
                          System time (sec):        6.813
                         Elapsed time (sec):       72.374
  
                   Maximum memory used (kb):       92652.
                   Average memory used (kb):           0.
  
                          Minor page faults:       245437
                          Major page faults:            0
                 Voluntary context switches:          649
