<?xml version="1.0" encoding="ISO-8859-1"?>
<modeling>
 <generator>
  <i name="program" type="string">vasp </i>
  <i name="version" type="string">5.4.4.18Apr17-6-g9f103f2a35  </i>
  <i name="subversion" type="string">(build Nov 08 2022 17:27:33) complex            parallel </i>
  <i name="platform" type="string">LinuxIFC </i>
  <i name="date" type="string">2022 11 22 </i>
  <i name="time" type="string">17:22:58 </i>
 </generator>
 <incar>
  <i type="string" name="PREC">accurate</i>
  <i type="string" name="ALGO"> All</i>
  <i type="int" name="ISPIN">     1</i>
  <i type="int" name="ICHARG">     0</i>
  <i type="int" name="NELM">   200</i>
  <i type="int" name="IBRION">     2</i>
  <i name="EDIFF">      0.00000100</i>
  <i name="EDIFFG">     -0.03000000</i>
  <i type="int" name="NSW">     0</i>
  <i type="int" name="ISIF">     3</i>
  <i type="int" name="ISYM">     0</i>
  <i name="ENCUT">    520.00000000</i>
  <i name="ENAUG">   1040.00000000</i>
  <v name="MAGMOM">      0.00000000      0.00000000</v>
  <i type="logical" name="LREAL"> F  </i>
  <i type="int" name="ISMEAR">     0</i>
  <i name="SIGMA">      0.01000000</i>
  <i name="KSPACING">      0.22000000</i>
  <i type="logical" name="LWAVE"> T  </i>
  <i type="logical" name="LCHARG"> T  </i>
  <i type="logical" name="LVTOT"> T  </i>
  <i type="logical" name="LVHAR"> T  </i>
  <i type="int" name="LORBIT">     0</i>
  <i type="logical" name="LELF"> T  </i>
  <i type="logical" name="LASPH"> T  </i>
  <i type="logical" name="LAECHG"> T  </i>
  <v type="int" name="KPOINT_BSE">    -1     0     0     0</v>
  <i type="int" name="NELM">   200</i>
  <i type="string" name="GGA"> Pe</i>
  <i type="string" name="METAGGA"> R2scan</i>
  <i type="logical" name="LASPH"> T  </i>
  <i type="int" name="LMIXTAU">    -1</i>
 </incar>
 <structure name="primitive_cell" >
  <crystal>
   <varray name="basis" >
    <v>      -0.00015237       1.99077658       1.99077669 </v>
    <v>       1.99077658      -0.00015236       1.99077668 </v>
    <v>       1.99077664       1.99077663      -0.00015242 </v>
   </varray>
   <i name="volume">     15.78147017 </i>
   <varray name="rec_basis" >
    <v>      -0.25112943       0.25114866       0.25114864 </v>
    <v>       0.25114866      -0.25112944       0.25114864 </v>
    <v>       0.25114865       0.25114865      -0.25112941 </v>
   </varray>
  </crystal>
  <varray name="positions" >
   <v>       0.00000001       0.00000002      -0.00000002 </v>
   <v>       0.49999999       0.49999998      -0.49999998 </v>
  </varray>
 </structure>
 <varray name="primitive_index" >
  <v type="int" >        1 </v>
  <v type="int" >        2 </v>
 </varray>
 <kpoints>
  <generation param="Gamma">
   <v type="int" name="divisions">      13       13       13 </v>
   <v name="usershift">      0.00000000       0.00000000       0.00000000 </v>
   <v name="genvec1">      0.07692308       0.00000000      -0.00000000 </v>
   <v name="genvec2">     -0.00000000       0.07692308      -0.00000000 </v>
   <v name="genvec3">      0.00000000      -0.00000000       0.07692308 </v>
   <v name="shift">      0.00000000       0.00000000       0.00000000 </v>
  </generation>
  <varray name="kpointlist" >
   <v>       0.00000000       0.00000000       0.00000000 </v>
   <v>       0.07692308       0.00000000      -0.00000000 </v>
   <v>       0.15384615      -0.00000000      -0.00000000 </v>
   <v>       0.23076923      -0.00000000      -0.00000000 </v>
   <v>       0.30769231       0.00000000      -0.00000000 </v>
   <v>       0.38461538       0.00000000       0.00000000 </v>
   <v>       0.46153846      -0.00000000      -0.00000000 </v>
   <v>      -0.00000000       0.07692308       0.00000000 </v>
   <v>       0.07692308       0.07692308       0.00000000 </v>
   <v>       0.15384615       0.07692308       0.00000000 </v>
   <v>       0.23076923       0.07692308       0.00000000 </v>
   <v>       0.30769231       0.07692308       0.00000000 </v>
   <v>       0.38461538       0.07692308       0.00000000 </v>
   <v>       0.46153846       0.07692308       0.00000000 </v>
   <v>      -0.46153846       0.07692308       0.00000000 </v>
   <v>      -0.38461538       0.07692308       0.00000000 </v>
   <v>      -0.30769231       0.07692308       0.00000000 </v>
   <v>      -0.23076923       0.07692308       0.00000000 </v>
   <v>      -0.15384615       0.07692308      -0.00000000 </v>
   <v>      -0.07692308       0.07692308      -0.00000000 </v>
   <v>      -0.00000000       0.15384615       0.00000000 </v>
   <v>       0.07692308       0.15384615       0.00000000 </v>
   <v>       0.15384615       0.15384615       0.00000000 </v>
   <v>       0.23076923       0.15384615       0.00000000 </v>
   <v>       0.30769231       0.15384615       0.00000000 </v>
   <v>       0.38461538       0.15384615       0.00000000 </v>
   <v>       0.46153846       0.15384615       0.00000000 </v>
   <v>      -0.46153846       0.15384615       0.00000000 </v>
   <v>      -0.38461538       0.15384615       0.00000000 </v>
   <v>      -0.30769231       0.15384615      -0.00000000 </v>
   <v>      -0.23076923       0.15384615       0.00000000 </v>
   <v>      -0.15384615       0.15384615      -0.00000000 </v>
   <v>      -0.07692308       0.15384615       0.00000000 </v>
   <v>       0.00000000       0.23076923       0.00000000 </v>
   <v>       0.07692308       0.23076923       0.00000000 </v>
   <v>       0.15384615       0.23076923       0.00000000 </v>
   <v>       0.23076923       0.23076923       0.00000000 </v>
   <v>       0.30769231       0.23076923       0.00000000 </v>
   <v>       0.38461538       0.23076923       0.00000000 </v>
   <v>       0.46153846       0.23076923       0.00000000 </v>
   <v>      -0.46153846       0.23076923       0.00000000 </v>
   <v>      -0.38461538       0.23076923      -0.00000000 </v>
   <v>      -0.30769231       0.23076923      -0.00000000 </v>
   <v>      -0.23076923       0.23076923       0.00000000 </v>
   <v>      -0.15384615       0.23076923       0.00000000 </v>
   <v>      -0.07692308       0.23076923       0.00000000 </v>
   <v>      -0.00000000       0.30769231       0.00000000 </v>
   <v>       0.07692308       0.30769231       0.00000000 </v>
   <v>       0.15384615       0.30769231       0.00000000 </v>
   <v>       0.23076923       0.30769231       0.00000000 </v>
   <v>       0.30769231       0.30769231       0.00000000 </v>
   <v>       0.38461538       0.30769231      -0.00000000 </v>
   <v>       0.46153846       0.30769231      -0.00000000 </v>
   <v>      -0.46153846       0.30769231       0.00000000 </v>
   <v>      -0.38461538       0.30769231       0.00000000 </v>
   <v>      -0.30769231       0.30769231      -0.00000000 </v>
   <v>      -0.23076923       0.30769231       0.00000000 </v>
   <v>      -0.15384615       0.30769231       0.00000000 </v>
   <v>      -0.07692308       0.30769231       0.00000000 </v>
   <v>       0.00000000       0.38461538       0.00000000 </v>
   <v>       0.07692308       0.38461538       0.00000000 </v>
   <v>       0.15384615       0.38461538       0.00000000 </v>
   <v>       0.23076923       0.38461538       0.00000000 </v>
   <v>       0.30769231       0.38461538       0.00000000 </v>
   <v>       0.38461538       0.38461538       0.00000000 </v>
   <v>       0.46153846       0.38461538       0.00000000 </v>
   <v>      -0.46153846       0.38461538       0.00000000 </v>
   <v>      -0.38461538       0.38461538       0.00000000 </v>
   <v>      -0.30769231       0.38461538       0.00000000 </v>
   <v>      -0.23076923       0.38461538       0.00000000 </v>
   <v>      -0.15384615       0.38461538       0.00000000 </v>
   <v>      -0.07692308       0.38461538       0.00000000 </v>
   <v>       0.00000000       0.46153846       0.00000000 </v>
   <v>       0.07692308       0.46153846       0.00000000 </v>
   <v>       0.15384615       0.46153846       0.00000000 </v>
   <v>       0.23076923       0.46153846       0.00000000 </v>
   <v>       0.30769231       0.46153846       0.00000000 </v>
   <v>       0.38461538       0.46153846       0.00000000 </v>
   <v>       0.46153846       0.46153846       0.00000000 </v>
   <v>      -0.46153846       0.46153846       0.00000000 </v>
   <v>      -0.38461538       0.46153846      -0.00000000 </v>
   <v>      -0.30769231       0.46153846       0.00000000 </v>
   <v>      -0.23076923       0.46153846      -0.00000000 </v>
   <v>      -0.15384615       0.46153846       0.00000000 </v>
   <v>      -0.07692308       0.46153846       0.00000000 </v>
   <v>       0.00000000      -0.00000000       0.07692308 </v>
   <v>       0.07692308      -0.00000000       0.07692308 </v>
   <v>       0.15384615      -0.00000000       0.07692308 </v>
   <v>       0.23076923      -0.00000000       0.07692308 </v>
   <v>       0.30769231       0.00000000       0.07692308 </v>
   <v>       0.38461538       0.00000000       0.07692308 </v>
   <v>       0.46153846       0.00000000       0.07692308 </v>
   <v>      -0.46153846       0.00000000       0.07692308 </v>
   <v>      -0.38461538       0.00000000       0.07692308 </v>
   <v>      -0.30769231       0.00000000       0.07692308 </v>
   <v>      -0.23076923       0.00000000       0.07692308 </v>
   <v>      -0.15384615      -0.00000000       0.07692308 </v>
   <v>      -0.07692308      -0.00000000       0.07692308 </v>
   <v>      -0.00000000       0.07692308       0.07692308 </v>
   <v>       0.07692308       0.07692308       0.07692308 </v>
   <v>       0.15384615       0.07692308       0.07692308 </v>
   <v>       0.23076923       0.07692308       0.07692308 </v>
   <v>       0.30769231       0.07692308       0.07692308 </v>
   <v>       0.38461538       0.07692308       0.07692308 </v>
   <v>       0.46153846       0.07692308       0.07692308 </v>
   <v>      -0.46153846       0.07692308       0.07692308 </v>
   <v>      -0.38461538       0.07692308       0.07692308 </v>
   <v>      -0.30769231       0.07692308       0.07692308 </v>
   <v>      -0.23076923       0.07692308       0.07692308 </v>
   <v>      -0.15384615       0.07692308       0.07692308 </v>
   <v>      -0.07692308       0.07692308       0.07692308 </v>
   <v>       0.00000000       0.15384615       0.07692308 </v>
   <v>       0.07692308       0.15384615       0.07692308 </v>
   <v>       0.15384615       0.15384615       0.07692308 </v>
   <v>       0.23076923       0.15384615       0.07692308 </v>
   <v>       0.30769231       0.15384615       0.07692308 </v>
   <v>       0.38461538       0.15384615       0.07692308 </v>
   <v>       0.46153846       0.15384615       0.07692308 </v>
   <v>      -0.46153846       0.15384615       0.07692308 </v>
   <v>      -0.38461538       0.15384615       0.07692308 </v>
   <v>      -0.30769231       0.15384615       0.07692308 </v>
   <v>      -0.23076923       0.15384615       0.07692308 </v>
   <v>      -0.15384615       0.15384615       0.07692308 </v>
   <v>      -0.07692308       0.15384615       0.07692308 </v>
   <v>      -0.00000000       0.23076923       0.07692308 </v>
   <v>       0.07692308       0.23076923       0.07692308 </v>
   <v>       0.15384615       0.23076923       0.07692308 </v>
   <v>       0.23076923       0.23076923       0.07692308 </v>
   <v>       0.30769231       0.23076923       0.07692308 </v>
   <v>       0.38461538       0.23076923       0.07692308 </v>
   <v>       0.46153846       0.23076923       0.07692308 </v>
   <v>      -0.46153846       0.23076923       0.07692308 </v>
   <v>      -0.38461538       0.23076923       0.07692308 </v>
   <v>      -0.30769231       0.23076923       0.07692308 </v>
   <v>      -0.23076923       0.23076923       0.07692308 </v>
   <v>      -0.15384615       0.23076923       0.07692308 </v>
   <v>      -0.07692308       0.23076923       0.07692308 </v>
   <v>      -0.00000000       0.30769231       0.07692308 </v>
   <v>       0.07692308       0.30769231       0.07692308 </v>
   <v>       0.15384615       0.30769231       0.07692308 </v>
   <v>       0.23076923       0.30769231       0.07692308 </v>
   <v>       0.30769231       0.30769231       0.07692308 </v>
   <v>       0.38461538       0.30769231       0.07692308 </v>
   <v>       0.46153846       0.30769231       0.07692308 </v>
   <v>      -0.46153846       0.30769231       0.07692308 </v>
   <v>      -0.38461538       0.30769231       0.07692308 </v>
   <v>      -0.30769231       0.30769231       0.07692308 </v>
   <v>      -0.23076923       0.30769231       0.07692308 </v>
   <v>      -0.15384615       0.30769231       0.07692308 </v>
   <v>      -0.07692308       0.30769231       0.07692308 </v>
   <v>      -0.00000000       0.38461538       0.07692308 </v>
   <v>       0.07692308       0.38461538       0.07692308 </v>
   <v>       0.15384615       0.38461538       0.07692308 </v>
   <v>       0.23076923       0.38461538       0.07692308 </v>
   <v>       0.30769231       0.38461538       0.07692308 </v>
   <v>       0.38461538       0.38461538       0.07692308 </v>
   <v>       0.46153846       0.38461538       0.07692308 </v>
   <v>      -0.46153846       0.38461538       0.07692308 </v>
   <v>      -0.38461538       0.38461538       0.07692308 </v>
   <v>      -0.30769231       0.38461538       0.07692308 </v>
   <v>      -0.23076923       0.38461538       0.07692308 </v>
   <v>      -0.15384615       0.38461538       0.07692308 </v>
   <v>      -0.07692308       0.38461538       0.07692308 </v>
   <v>       0.00000000       0.46153846       0.07692308 </v>
   <v>       0.07692308       0.46153846       0.07692308 </v>
   <v>       0.15384615       0.46153846       0.07692308 </v>
   <v>       0.23076923       0.46153846       0.07692308 </v>
   <v>       0.30769231       0.46153846       0.07692308 </v>
   <v>       0.38461538       0.46153846       0.07692308 </v>
   <v>       0.46153846       0.46153846       0.07692308 </v>
   <v>      -0.46153846       0.46153846       0.07692308 </v>
   <v>      -0.38461538       0.46153846       0.07692308 </v>
   <v>      -0.30769231       0.46153846       0.07692308 </v>
   <v>      -0.23076923       0.46153846       0.07692308 </v>
   <v>      -0.15384615       0.46153846       0.07692308 </v>
   <v>      -0.07692308       0.46153846       0.07692308 </v>
   <v>       0.00000000      -0.46153846       0.07692308 </v>
   <v>       0.07692308      -0.46153846       0.07692308 </v>
   <v>       0.15384615      -0.46153846       0.07692308 </v>
   <v>       0.23076923      -0.46153846       0.07692308 </v>
   <v>       0.30769231      -0.46153846       0.07692308 </v>
   <v>       0.38461538      -0.46153846       0.07692308 </v>
   <v>       0.46153846      -0.46153846       0.07692308 </v>
   <v>      -0.46153846      -0.46153846       0.07692308 </v>
   <v>      -0.38461538      -0.46153846       0.07692308 </v>
   <v>      -0.30769231      -0.46153846       0.07692308 </v>
   <v>      -0.23076923      -0.46153846       0.07692308 </v>
   <v>      -0.15384615      -0.46153846       0.07692308 </v>
   <v>      -0.07692308      -0.46153846       0.07692308 </v>
   <v>       0.00000000      -0.38461538       0.07692308 </v>
   <v>       0.07692308      -0.38461538       0.07692308 </v>
   <v>       0.15384615      -0.38461538       0.07692308 </v>
   <v>       0.23076923      -0.38461538       0.07692308 </v>
   <v>       0.30769231      -0.38461538       0.07692308 </v>
   <v>       0.38461538      -0.38461538       0.07692308 </v>
   <v>       0.46153846      -0.38461538       0.07692308 </v>
   <v>      -0.46153846      -0.38461538       0.07692308 </v>
   <v>      -0.38461538      -0.38461538       0.07692308 </v>
   <v>      -0.30769231      -0.38461538       0.07692308 </v>
   <v>      -0.23076923      -0.38461538       0.07692308 </v>
   <v>      -0.15384615      -0.38461538       0.07692308 </v>
   <v>      -0.07692308      -0.38461538       0.07692308 </v>
   <v>       0.00000000      -0.30769231       0.07692308 </v>
   <v>       0.07692308      -0.30769231       0.07692308 </v>
   <v>       0.15384615      -0.30769231       0.07692308 </v>
   <v>       0.23076923      -0.30769231       0.07692308 </v>
   <v>       0.30769231      -0.30769231       0.07692308 </v>
   <v>       0.38461538      -0.30769231       0.07692308 </v>
   <v>       0.46153846      -0.30769231       0.07692308 </v>
   <v>      -0.46153846      -0.30769231       0.07692308 </v>
   <v>      -0.38461538      -0.30769231       0.07692308 </v>
   <v>      -0.30769231      -0.30769231       0.07692308 </v>
   <v>      -0.23076923      -0.30769231       0.07692308 </v>
   <v>      -0.15384615      -0.30769231       0.07692308 </v>
   <v>      -0.07692308      -0.30769231       0.07692308 </v>
   <v>       0.00000000      -0.23076923       0.07692308 </v>
   <v>       0.07692308      -0.23076923       0.07692308 </v>
   <v>       0.15384615      -0.23076923       0.07692308 </v>
   <v>       0.23076923      -0.23076923       0.07692308 </v>
   <v>       0.30769231      -0.23076923       0.07692308 </v>
   <v>       0.38461538      -0.23076923       0.07692308 </v>
   <v>       0.46153846      -0.23076923       0.07692308 </v>
   <v>      -0.46153846      -0.23076923       0.07692308 </v>
   <v>      -0.38461538      -0.23076923       0.07692308 </v>
   <v>      -0.30769231      -0.23076923       0.07692308 </v>
   <v>      -0.23076923      -0.23076923       0.07692308 </v>
   <v>      -0.15384615      -0.23076923       0.07692308 </v>
   <v>      -0.07692308      -0.23076923       0.07692308 </v>
   <v>       0.00000000      -0.15384615       0.07692308 </v>
   <v>       0.07692308      -0.15384615       0.07692308 </v>
   <v>       0.15384615      -0.15384615       0.07692308 </v>
   <v>       0.23076923      -0.15384615       0.07692308 </v>
   <v>       0.30769231      -0.15384615       0.07692308 </v>
   <v>       0.38461538      -0.15384615       0.07692308 </v>
   <v>       0.46153846      -0.15384615       0.07692308 </v>
   <v>      -0.46153846      -0.15384615       0.07692308 </v>
   <v>      -0.38461538      -0.15384615       0.07692308 </v>
   <v>      -0.30769231      -0.15384615       0.07692308 </v>
   <v>      -0.23076923      -0.15384615       0.07692308 </v>
   <v>      -0.15384615      -0.15384615       0.07692308 </v>
   <v>      -0.07692308      -0.15384615       0.07692308 </v>
   <v>       0.00000000      -0.07692308       0.07692308 </v>
   <v>       0.07692308      -0.07692308       0.07692308 </v>
   <v>       0.15384615      -0.07692308       0.07692308 </v>
   <v>       0.23076923      -0.07692308       0.07692308 </v>
   <v>       0.30769231      -0.07692308       0.07692308 </v>
   <v>       0.38461538      -0.07692308       0.07692308 </v>
   <v>       0.46153846      -0.07692308       0.07692308 </v>
   <v>      -0.46153846      -0.07692308       0.07692308 </v>
   <v>      -0.38461538      -0.07692308       0.07692308 </v>
   <v>      -0.30769231      -0.07692308       0.07692308 </v>
   <v>      -0.23076923      -0.07692308       0.07692308 </v>
   <v>      -0.15384615      -0.07692308       0.07692308 </v>
   <v>      -0.07692308      -0.07692308       0.07692308 </v>
   <v>       0.00000000       0.00000000       0.15384615 </v>
   <v>       0.07692308      -0.00000000       0.15384615 </v>
   <v>       0.15384615      -0.00000000       0.15384615 </v>
   <v>       0.23076923       0.00000000       0.15384615 </v>
   <v>       0.30769231       0.00000000       0.15384615 </v>
   <v>       0.38461538       0.00000000       0.15384615 </v>
   <v>       0.46153846      -0.00000000       0.15384615 </v>
   <v>      -0.46153846       0.00000000       0.15384615 </v>
   <v>      -0.38461538       0.00000000       0.15384615 </v>
   <v>      -0.30769231      -0.00000000       0.15384615 </v>
   <v>      -0.23076923      -0.00000000       0.15384615 </v>
   <v>      -0.15384615      -0.00000000       0.15384615 </v>
   <v>      -0.07692308       0.00000000       0.15384615 </v>
   <v>       0.00000000       0.07692308       0.15384615 </v>
   <v>       0.07692308       0.07692308       0.15384615 </v>
   <v>       0.15384615       0.07692308       0.15384615 </v>
   <v>       0.23076923       0.07692308       0.15384615 </v>
   <v>       0.30769231       0.07692308       0.15384615 </v>
   <v>       0.38461538       0.07692308       0.15384615 </v>
   <v>       0.46153846       0.07692308       0.15384615 </v>
   <v>      -0.46153846       0.07692308       0.15384615 </v>
   <v>      -0.38461538       0.07692308       0.15384615 </v>
   <v>      -0.30769231       0.07692308       0.15384615 </v>
   <v>      -0.23076923       0.07692308       0.15384615 </v>
   <v>      -0.15384615       0.07692308       0.15384615 </v>
   <v>      -0.07692308       0.07692308       0.15384615 </v>
   <v>      -0.00000000       0.15384615       0.15384615 </v>
   <v>       0.07692308       0.15384615       0.15384615 </v>
   <v>       0.15384615       0.15384615       0.15384615 </v>
   <v>       0.23076923       0.15384615       0.15384615 </v>
   <v>       0.30769231       0.15384615       0.15384615 </v>
   <v>       0.38461538       0.15384615       0.15384615 </v>
   <v>       0.46153846       0.15384615       0.15384615 </v>
   <v>      -0.46153846       0.15384615       0.15384615 </v>
   <v>      -0.38461538       0.15384615       0.15384615 </v>
   <v>      -0.30769231       0.15384615       0.15384615 </v>
   <v>      -0.23076923       0.15384615       0.15384615 </v>
   <v>      -0.15384615       0.15384615       0.15384615 </v>
   <v>      -0.07692308       0.15384615       0.15384615 </v>
   <v>      -0.00000000       0.23076923       0.15384615 </v>
   <v>       0.07692308       0.23076923       0.15384615 </v>
   <v>       0.15384615       0.23076923       0.15384615 </v>
   <v>       0.23076923       0.23076923       0.15384615 </v>
   <v>       0.30769231       0.23076923       0.15384615 </v>
   <v>       0.38461538       0.23076923       0.15384615 </v>
   <v>       0.46153846       0.23076923       0.15384615 </v>
   <v>      -0.46153846       0.23076923       0.15384615 </v>
   <v>      -0.38461538       0.23076923       0.15384615 </v>
   <v>      -0.30769231       0.23076923       0.15384615 </v>
   <v>      -0.23076923       0.23076923       0.15384615 </v>
   <v>      -0.15384615       0.23076923       0.15384615 </v>
   <v>      -0.07692308       0.23076923       0.15384615 </v>
   <v>      -0.00000000       0.30769231       0.15384615 </v>
   <v>       0.07692308       0.30769231       0.15384615 </v>
   <v>       0.15384615       0.30769231       0.15384615 </v>
   <v>       0.23076923       0.30769231       0.15384615 </v>
   <v>       0.30769231       0.30769231       0.15384615 </v>
   <v>       0.38461538       0.30769231       0.15384615 </v>
   <v>       0.46153846       0.30769231       0.15384615 </v>
   <v>      -0.46153846       0.30769231       0.15384615 </v>
   <v>      -0.38461538       0.30769231       0.15384615 </v>
   <v>      -0.30769231       0.30769231       0.15384615 </v>
   <v>      -0.23076923       0.30769231       0.15384615 </v>
   <v>      -0.15384615       0.30769231       0.15384615 </v>
   <v>      -0.07692308       0.30769231       0.15384615 </v>
   <v>       0.00000000       0.38461538       0.15384615 </v>
   <v>       0.07692308       0.38461538       0.15384615 </v>
   <v>       0.15384615       0.38461538       0.15384615 </v>
   <v>       0.23076923       0.38461538       0.15384615 </v>
   <v>       0.30769231       0.38461538       0.15384615 </v>
   <v>       0.38461538       0.38461538       0.15384615 </v>
   <v>       0.46153846       0.38461538       0.15384615 </v>
   <v>      -0.46153846       0.38461538       0.15384615 </v>
   <v>      -0.38461538       0.38461538       0.15384615 </v>
   <v>      -0.30769231       0.38461538       0.15384615 </v>
   <v>      -0.23076923       0.38461538       0.15384615 </v>
   <v>      -0.15384615       0.38461538       0.15384615 </v>
   <v>      -0.07692308       0.38461538       0.15384615 </v>
   <v>      -0.00000000       0.46153846       0.15384615 </v>
   <v>       0.07692308       0.46153846       0.15384615 </v>
   <v>       0.15384615       0.46153846       0.15384615 </v>
   <v>       0.23076923       0.46153846       0.15384615 </v>
   <v>       0.30769231       0.46153846       0.15384615 </v>
   <v>       0.38461538       0.46153846       0.15384615 </v>
   <v>       0.46153846       0.46153846       0.15384615 </v>
   <v>      -0.46153846       0.46153846       0.15384615 </v>
   <v>      -0.38461538       0.46153846       0.15384615 </v>
   <v>      -0.30769231       0.46153846       0.15384615 </v>
   <v>      -0.23076923       0.46153846       0.15384615 </v>
   <v>      -0.15384615       0.46153846       0.15384615 </v>
   <v>      -0.07692308       0.46153846       0.15384615 </v>
   <v>       0.00000000      -0.46153846       0.15384615 </v>
   <v>       0.07692308      -0.46153846       0.15384615 </v>
   <v>       0.15384615      -0.46153846       0.15384615 </v>
   <v>       0.23076923      -0.46153846       0.15384615 </v>
   <v>       0.30769231      -0.46153846       0.15384615 </v>
   <v>       0.38461538      -0.46153846       0.15384615 </v>
   <v>       0.46153846      -0.46153846       0.15384615 </v>
   <v>      -0.46153846      -0.46153846       0.15384615 </v>
   <v>      -0.38461538      -0.46153846       0.15384615 </v>
   <v>      -0.30769231      -0.46153846       0.15384615 </v>
   <v>      -0.23076923      -0.46153846       0.15384615 </v>
   <v>      -0.15384615      -0.46153846       0.15384615 </v>
   <v>      -0.07692308      -0.46153846       0.15384615 </v>
   <v>       0.00000000      -0.38461538       0.15384615 </v>
   <v>       0.07692308      -0.38461538       0.15384615 </v>
   <v>       0.15384615      -0.38461538       0.15384615 </v>
   <v>       0.23076923      -0.38461538       0.15384615 </v>
   <v>       0.30769231      -0.38461538       0.15384615 </v>
   <v>       0.38461538      -0.38461538       0.15384615 </v>
   <v>       0.46153846      -0.38461538       0.15384615 </v>
   <v>      -0.46153846      -0.38461538       0.15384615 </v>
   <v>      -0.38461538      -0.38461538       0.15384615 </v>
   <v>      -0.30769231      -0.38461538       0.15384615 </v>
   <v>      -0.23076923      -0.38461538       0.15384615 </v>
   <v>      -0.15384615      -0.38461538       0.15384615 </v>
   <v>      -0.07692308      -0.38461538       0.15384615 </v>
   <v>       0.00000000      -0.30769231       0.15384615 </v>
   <v>       0.07692308      -0.30769231       0.15384615 </v>
   <v>       0.15384615      -0.30769231       0.15384615 </v>
   <v>       0.23076923      -0.30769231       0.15384615 </v>
   <v>       0.30769231      -0.30769231       0.15384615 </v>
   <v>       0.38461538      -0.30769231       0.15384615 </v>
   <v>       0.46153846      -0.30769231       0.15384615 </v>
   <v>      -0.46153846      -0.30769231       0.15384615 </v>
   <v>      -0.38461538      -0.30769231       0.15384615 </v>
   <v>      -0.30769231      -0.30769231       0.15384615 </v>
   <v>      -0.23076923      -0.30769231       0.15384615 </v>
   <v>      -0.15384615      -0.30769231       0.15384615 </v>
   <v>      -0.07692308      -0.30769231       0.15384615 </v>
   <v>       0.00000000      -0.23076923       0.15384615 </v>
   <v>       0.07692308      -0.23076923       0.15384615 </v>
   <v>       0.15384615      -0.23076923       0.15384615 </v>
   <v>       0.23076923      -0.23076923       0.15384615 </v>
   <v>       0.30769231      -0.23076923       0.15384615 </v>
   <v>       0.38461538      -0.23076923       0.15384615 </v>
   <v>       0.46153846      -0.23076923       0.15384615 </v>
   <v>      -0.46153846      -0.23076923       0.15384615 </v>
   <v>      -0.38461538      -0.23076923       0.15384615 </v>
   <v>      -0.30769231      -0.23076923       0.15384615 </v>
   <v>      -0.23076923      -0.23076923       0.15384615 </v>
   <v>      -0.15384615      -0.23076923       0.15384615 </v>
   <v>      -0.07692308      -0.23076923       0.15384615 </v>
   <v>       0.00000000      -0.15384615       0.15384615 </v>
   <v>       0.07692308      -0.15384615       0.15384615 </v>
   <v>       0.15384615      -0.15384615       0.15384615 </v>
   <v>       0.23076923      -0.15384615       0.15384615 </v>
   <v>       0.30769231      -0.15384615       0.15384615 </v>
   <v>       0.38461538      -0.15384615       0.15384615 </v>
   <v>       0.46153846      -0.15384615       0.15384615 </v>
   <v>      -0.46153846      -0.15384615       0.15384615 </v>
   <v>      -0.38461538      -0.15384615       0.15384615 </v>
   <v>      -0.30769231      -0.15384615       0.15384615 </v>
   <v>      -0.23076923      -0.15384615       0.15384615 </v>
   <v>      -0.15384615      -0.15384615       0.15384615 </v>
   <v>      -0.07692308      -0.15384615       0.15384615 </v>
   <v>      -0.00000000      -0.07692308       0.15384615 </v>
   <v>       0.07692308      -0.07692308       0.15384615 </v>
   <v>       0.15384615      -0.07692308       0.15384615 </v>
   <v>       0.23076923      -0.07692308       0.15384615 </v>
   <v>       0.30769231      -0.07692308       0.15384615 </v>
   <v>       0.38461538      -0.07692308       0.15384615 </v>
   <v>       0.46153846      -0.07692308       0.15384615 </v>
   <v>      -0.46153846      -0.07692308       0.15384615 </v>
   <v>      -0.38461538      -0.07692308       0.15384615 </v>
   <v>      -0.30769231      -0.07692308       0.15384615 </v>
   <v>      -0.23076923      -0.07692308       0.15384615 </v>
   <v>      -0.15384615      -0.07692308       0.15384615 </v>
   <v>      -0.07692308      -0.07692308       0.15384615 </v>
   <v>       0.00000000       0.00000000       0.23076923 </v>
   <v>       0.07692308       0.00000000       0.23076923 </v>
   <v>       0.15384615      -0.00000000       0.23076923 </v>
   <v>       0.23076923      -0.00000000       0.23076923 </v>
   <v>       0.30769231       0.00000000       0.23076923 </v>
   <v>       0.38461538       0.00000000       0.23076923 </v>
   <v>       0.46153846       0.00000000       0.23076923 </v>
   <v>      -0.46153846       0.00000000       0.23076923 </v>
   <v>      -0.38461538       0.00000000       0.23076923 </v>
   <v>      -0.30769231       0.00000000       0.23076923 </v>
   <v>      -0.23076923       0.00000000       0.23076923 </v>
   <v>      -0.15384615      -0.00000000       0.23076923 </v>
   <v>      -0.07692308       0.00000000       0.23076923 </v>
   <v>      -0.00000000       0.07692308       0.23076923 </v>
   <v>       0.07692308       0.07692308       0.23076923 </v>
   <v>       0.15384615       0.07692308       0.23076923 </v>
   <v>       0.23076923       0.07692308       0.23076923 </v>
   <v>       0.30769231       0.07692308       0.23076923 </v>
   <v>       0.38461538       0.07692308       0.23076923 </v>
   <v>       0.46153846       0.07692308       0.23076923 </v>
   <v>      -0.46153846       0.07692308       0.23076923 </v>
   <v>      -0.38461538       0.07692308       0.23076923 </v>
   <v>      -0.30769231       0.07692308       0.23076923 </v>
   <v>      -0.23076923       0.07692308       0.23076923 </v>
   <v>      -0.15384615       0.07692308       0.23076923 </v>
   <v>      -0.07692308       0.07692308       0.23076923 </v>
   <v>      -0.00000000       0.15384615       0.23076923 </v>
   <v>       0.07692308       0.15384615       0.23076923 </v>
   <v>       0.15384615       0.15384615       0.23076923 </v>
   <v>       0.23076923       0.15384615       0.23076923 </v>
   <v>       0.30769231       0.15384615       0.23076923 </v>
   <v>       0.38461538       0.15384615       0.23076923 </v>
   <v>       0.46153846       0.15384615       0.23076923 </v>
   <v>      -0.46153846       0.15384615       0.23076923 </v>
   <v>      -0.38461538       0.15384615       0.23076923 </v>
   <v>      -0.30769231       0.15384615       0.23076923 </v>
   <v>      -0.23076923       0.15384615       0.23076923 </v>
   <v>      -0.15384615       0.15384615       0.23076923 </v>
   <v>      -0.07692308       0.15384615       0.23076923 </v>
   <v>      -0.00000000       0.23076923       0.23076923 </v>
   <v>       0.07692308       0.23076923       0.23076923 </v>
   <v>       0.15384615       0.23076923       0.23076923 </v>
   <v>       0.23076923       0.23076923       0.23076923 </v>
   <v>       0.30769231       0.23076923       0.23076923 </v>
   <v>       0.38461538       0.23076923       0.23076923 </v>
   <v>       0.46153846       0.23076923       0.23076923 </v>
   <v>      -0.46153846       0.23076923       0.23076923 </v>
   <v>      -0.38461538       0.23076923       0.23076923 </v>
   <v>      -0.30769231       0.23076923       0.23076923 </v>
   <v>      -0.23076923       0.23076923       0.23076923 </v>
   <v>      -0.15384615       0.23076923       0.23076923 </v>
   <v>      -0.07692308       0.23076923       0.23076923 </v>
   <v>      -0.00000000       0.30769231       0.23076923 </v>
   <v>       0.07692308       0.30769231       0.23076923 </v>
   <v>       0.15384615       0.30769231       0.23076923 </v>
   <v>       0.23076923       0.30769231       0.23076923 </v>
   <v>       0.30769231       0.30769231       0.23076923 </v>
   <v>       0.38461538       0.30769231       0.23076923 </v>
   <v>       0.46153846       0.30769231       0.23076923 </v>
   <v>      -0.46153846       0.30769231       0.23076923 </v>
   <v>      -0.38461538       0.30769231       0.23076923 </v>
   <v>      -0.30769231       0.30769231       0.23076923 </v>
   <v>      -0.23076923       0.30769231       0.23076923 </v>
   <v>      -0.15384615       0.30769231       0.23076923 </v>
   <v>      -0.07692308       0.30769231       0.23076923 </v>
   <v>       0.00000000       0.38461538       0.23076923 </v>
   <v>       0.07692308       0.38461538       0.23076923 </v>
   <v>       0.15384615       0.38461538       0.23076923 </v>
   <v>       0.23076923       0.38461538       0.23076923 </v>
   <v>       0.30769231       0.38461538       0.23076923 </v>
   <v>       0.38461538       0.38461538       0.23076923 </v>
   <v>       0.46153846       0.38461538       0.23076923 </v>
   <v>      -0.46153846       0.38461538       0.23076923 </v>
   <v>      -0.38461538       0.38461538       0.23076923 </v>
   <v>      -0.30769231       0.38461538       0.23076923 </v>
   <v>      -0.23076923       0.38461538       0.23076923 </v>
   <v>      -0.15384615       0.38461538       0.23076923 </v>
   <v>      -0.07692308       0.38461538       0.23076923 </v>
   <v>       0.00000000       0.46153846       0.23076923 </v>
   <v>       0.07692308       0.46153846       0.23076923 </v>
   <v>       0.15384615       0.46153846       0.23076923 </v>
   <v>       0.23076923       0.46153846       0.23076923 </v>
   <v>       0.30769231       0.46153846       0.23076923 </v>
   <v>       0.38461538       0.46153846       0.23076923 </v>
   <v>       0.46153846       0.46153846       0.23076923 </v>
   <v>      -0.46153846       0.46153846       0.23076923 </v>
   <v>      -0.38461538       0.46153846       0.23076923 </v>
   <v>      -0.30769231       0.46153846       0.23076923 </v>
   <v>      -0.23076923       0.46153846       0.23076923 </v>
   <v>      -0.15384615       0.46153846       0.23076923 </v>
   <v>      -0.07692308       0.46153846       0.23076923 </v>
   <v>       0.00000000      -0.46153846       0.23076923 </v>
   <v>       0.07692308      -0.46153846       0.23076923 </v>
   <v>       0.15384615      -0.46153846       0.23076923 </v>
   <v>       0.23076923      -0.46153846       0.23076923 </v>
   <v>       0.30769231      -0.46153846       0.23076923 </v>
   <v>       0.38461538      -0.46153846       0.23076923 </v>
   <v>       0.46153846      -0.46153846       0.23076923 </v>
   <v>      -0.46153846      -0.46153846       0.23076923 </v>
   <v>      -0.38461538      -0.46153846       0.23076923 </v>
   <v>      -0.30769231      -0.46153846       0.23076923 </v>
   <v>      -0.23076923      -0.46153846       0.23076923 </v>
   <v>      -0.15384615      -0.46153846       0.23076923 </v>
   <v>      -0.07692308      -0.46153846       0.23076923 </v>
   <v>       0.00000000      -0.38461538       0.23076923 </v>
   <v>       0.07692308      -0.38461538       0.23076923 </v>
   <v>       0.15384615      -0.38461538       0.23076923 </v>
   <v>       0.23076923      -0.38461538       0.23076923 </v>
   <v>       0.30769231      -0.38461538       0.23076923 </v>
   <v>       0.38461538      -0.38461538       0.23076923 </v>
   <v>       0.46153846      -0.38461538       0.23076923 </v>
   <v>      -0.46153846      -0.38461538       0.23076923 </v>
   <v>      -0.38461538      -0.38461538       0.23076923 </v>
   <v>      -0.30769231      -0.38461538       0.23076923 </v>
   <v>      -0.23076923      -0.38461538       0.23076923 </v>
   <v>      -0.15384615      -0.38461538       0.23076923 </v>
   <v>      -0.07692308      -0.38461538       0.23076923 </v>
   <v>      -0.00000000      -0.30769231       0.23076923 </v>
   <v>       0.07692308      -0.30769231       0.23076923 </v>
   <v>       0.15384615      -0.30769231       0.23076923 </v>
   <v>       0.23076923      -0.30769231       0.23076923 </v>
   <v>       0.30769231      -0.30769231       0.23076923 </v>
   <v>       0.38461538      -0.30769231       0.23076923 </v>
   <v>       0.46153846      -0.30769231       0.23076923 </v>
   <v>      -0.46153846      -0.30769231       0.23076923 </v>
   <v>      -0.38461538      -0.30769231       0.23076923 </v>
   <v>      -0.30769231      -0.30769231       0.23076923 </v>
   <v>      -0.23076923      -0.30769231       0.23076923 </v>
   <v>      -0.15384615      -0.30769231       0.23076923 </v>
   <v>      -0.07692308      -0.30769231       0.23076923 </v>
   <v>       0.00000000      -0.23076923       0.23076923 </v>
   <v>       0.07692308      -0.23076923       0.23076923 </v>
   <v>       0.15384615      -0.23076923       0.23076923 </v>
   <v>       0.23076923      -0.23076923       0.23076923 </v>
   <v>       0.30769231      -0.23076923       0.23076923 </v>
   <v>       0.38461538      -0.23076923       0.23076923 </v>
   <v>       0.46153846      -0.23076923       0.23076923 </v>
   <v>      -0.46153846      -0.23076923       0.23076923 </v>
   <v>      -0.38461538      -0.23076923       0.23076923 </v>
   <v>      -0.30769231      -0.23076923       0.23076923 </v>
   <v>      -0.23076923      -0.23076923       0.23076923 </v>
   <v>      -0.15384615      -0.23076923       0.23076923 </v>
   <v>      -0.07692308      -0.23076923       0.23076923 </v>
   <v>       0.00000000      -0.15384615       0.23076923 </v>
   <v>       0.07692308      -0.15384615       0.23076923 </v>
   <v>       0.15384615      -0.15384615       0.23076923 </v>
   <v>       0.23076923      -0.15384615       0.23076923 </v>
   <v>       0.30769231      -0.15384615       0.23076923 </v>
   <v>       0.38461538      -0.15384615       0.23076923 </v>
   <v>       0.46153846      -0.15384615       0.23076923 </v>
   <v>      -0.46153846      -0.15384615       0.23076923 </v>
   <v>      -0.38461538      -0.15384615       0.23076923 </v>
   <v>      -0.30769231      -0.15384615       0.23076923 </v>
   <v>      -0.23076923      -0.15384615       0.23076923 </v>
   <v>      -0.15384615      -0.15384615       0.23076923 </v>
   <v>      -0.07692308      -0.15384615       0.23076923 </v>
   <v>      -0.00000000      -0.07692308       0.23076923 </v>
   <v>       0.07692308      -0.07692308       0.23076923 </v>
   <v>       0.15384615      -0.07692308       0.23076923 </v>
   <v>       0.23076923      -0.07692308       0.23076923 </v>
   <v>       0.30769231      -0.07692308       0.23076923 </v>
   <v>       0.38461538      -0.07692308       0.23076923 </v>
   <v>       0.46153846      -0.07692308       0.23076923 </v>
   <v>      -0.46153846      -0.07692308       0.23076923 </v>
   <v>      -0.38461538      -0.07692308       0.23076923 </v>
   <v>      -0.30769231      -0.07692308       0.23076923 </v>
   <v>      -0.23076923      -0.07692308       0.23076923 </v>
   <v>      -0.15384615      -0.07692308       0.23076923 </v>
   <v>      -0.07692308      -0.07692308       0.23076923 </v>
   <v>       0.00000000       0.00000000       0.30769231 </v>
   <v>       0.07692308      -0.00000000       0.30769231 </v>
   <v>       0.15384615       0.00000000       0.30769231 </v>
   <v>       0.23076923      -0.00000000       0.30769231 </v>
   <v>       0.30769231      -0.00000000       0.30769231 </v>
   <v>       0.38461538       0.00000000       0.30769231 </v>
   <v>       0.46153846       0.00000000       0.30769231 </v>
   <v>      -0.46153846      -0.00000000       0.30769231 </v>
   <v>      -0.38461538      -0.00000000       0.30769231 </v>
   <v>      -0.30769231      -0.00000000       0.30769231 </v>
   <v>      -0.23076923      -0.00000000       0.30769231 </v>
   <v>      -0.15384615       0.00000000       0.30769231 </v>
   <v>      -0.07692308      -0.00000000       0.30769231 </v>
   <v>       0.00000000       0.07692308       0.30769231 </v>
   <v>       0.07692308       0.07692308       0.30769231 </v>
   <v>       0.15384615       0.07692308       0.30769231 </v>
   <v>       0.23076923       0.07692308       0.30769231 </v>
   <v>       0.30769231       0.07692308       0.30769231 </v>
   <v>       0.38461538       0.07692308       0.30769231 </v>
   <v>       0.46153846       0.07692308       0.30769231 </v>
   <v>      -0.46153846       0.07692308       0.30769231 </v>
   <v>      -0.38461538       0.07692308       0.30769231 </v>
   <v>      -0.30769231       0.07692308       0.30769231 </v>
   <v>      -0.23076923       0.07692308       0.30769231 </v>
   <v>      -0.15384615       0.07692308       0.30769231 </v>
   <v>      -0.07692308       0.07692308       0.30769231 </v>
   <v>      -0.00000000       0.15384615       0.30769231 </v>
   <v>       0.07692308       0.15384615       0.30769231 </v>
   <v>       0.15384615       0.15384615       0.30769231 </v>
   <v>       0.23076923       0.15384615       0.30769231 </v>
   <v>       0.30769231       0.15384615       0.30769231 </v>
   <v>       0.38461538       0.15384615       0.30769231 </v>
   <v>       0.46153846       0.15384615       0.30769231 </v>
   <v>      -0.46153846       0.15384615       0.30769231 </v>
   <v>      -0.38461538       0.15384615       0.30769231 </v>
   <v>      -0.30769231       0.15384615       0.30769231 </v>
   <v>      -0.23076923       0.15384615       0.30769231 </v>
   <v>      -0.15384615       0.15384615       0.30769231 </v>
   <v>      -0.07692308       0.15384615       0.30769231 </v>
   <v>      -0.00000000       0.23076923       0.30769231 </v>
   <v>       0.07692308       0.23076923       0.30769231 </v>
   <v>       0.15384615       0.23076923       0.30769231 </v>
   <v>       0.23076923       0.23076923       0.30769231 </v>
   <v>       0.30769231       0.23076923       0.30769231 </v>
   <v>       0.38461538       0.23076923       0.30769231 </v>
   <v>       0.46153846       0.23076923       0.30769231 </v>
   <v>      -0.46153846       0.23076923       0.30769231 </v>
   <v>      -0.38461538       0.23076923       0.30769231 </v>
   <v>      -0.30769231       0.23076923       0.30769231 </v>
   <v>      -0.23076923       0.23076923       0.30769231 </v>
   <v>      -0.15384615       0.23076923       0.30769231 </v>
   <v>      -0.07692308       0.23076923       0.30769231 </v>
   <v>      -0.00000000       0.30769231       0.30769231 </v>
   <v>       0.07692308       0.30769231       0.30769231 </v>
   <v>       0.15384615       0.30769231       0.30769231 </v>
   <v>       0.23076923       0.30769231       0.30769231 </v>
   <v>       0.30769231       0.30769231       0.30769231 </v>
   <v>       0.38461538       0.30769231       0.30769231 </v>
   <v>       0.46153846       0.30769231       0.30769231 </v>
   <v>      -0.46153846       0.30769231       0.30769231 </v>
   <v>      -0.38461538       0.30769231       0.30769231 </v>
   <v>      -0.30769231       0.30769231       0.30769231 </v>
   <v>      -0.23076923       0.30769231       0.30769231 </v>
   <v>      -0.15384615       0.30769231       0.30769231 </v>
   <v>      -0.07692308       0.30769231       0.30769231 </v>
   <v>       0.00000000       0.38461538       0.30769231 </v>
   <v>       0.07692308       0.38461538       0.30769231 </v>
   <v>       0.15384615       0.38461538       0.30769231 </v>
   <v>       0.23076923       0.38461538       0.30769231 </v>
   <v>       0.30769231       0.38461538       0.30769231 </v>
   <v>       0.38461538       0.38461538       0.30769231 </v>
   <v>       0.46153846       0.38461538       0.30769231 </v>
   <v>      -0.46153846       0.38461538       0.30769231 </v>
   <v>      -0.38461538       0.38461538       0.30769231 </v>
   <v>      -0.30769231       0.38461538       0.30769231 </v>
   <v>      -0.23076923       0.38461538       0.30769231 </v>
   <v>      -0.15384615       0.38461538       0.30769231 </v>
   <v>      -0.07692308       0.38461538       0.30769231 </v>
   <v>       0.00000000       0.46153846       0.30769231 </v>
   <v>       0.07692308       0.46153846       0.30769231 </v>
   <v>       0.15384615       0.46153846       0.30769231 </v>
   <v>       0.23076923       0.46153846       0.30769231 </v>
   <v>       0.30769231       0.46153846       0.30769231 </v>
   <v>       0.38461538       0.46153846       0.30769231 </v>
   <v>       0.46153846       0.46153846       0.30769231 </v>
   <v>      -0.46153846       0.46153846       0.30769231 </v>
   <v>      -0.38461538       0.46153846       0.30769231 </v>
   <v>      -0.30769231       0.46153846       0.30769231 </v>
   <v>      -0.23076923       0.46153846       0.30769231 </v>
   <v>      -0.15384615       0.46153846       0.30769231 </v>
   <v>      -0.07692308       0.46153846       0.30769231 </v>
   <v>       0.00000000      -0.46153846       0.30769231 </v>
   <v>       0.07692308      -0.46153846       0.30769231 </v>
   <v>       0.15384615      -0.46153846       0.30769231 </v>
   <v>       0.23076923      -0.46153846       0.30769231 </v>
   <v>       0.30769231      -0.46153846       0.30769231 </v>
   <v>       0.38461538      -0.46153846       0.30769231 </v>
   <v>       0.46153846      -0.46153846       0.30769231 </v>
   <v>      -0.46153846      -0.46153846       0.30769231 </v>
   <v>      -0.38461538      -0.46153846       0.30769231 </v>
   <v>      -0.30769231      -0.46153846       0.30769231 </v>
   <v>      -0.23076923      -0.46153846       0.30769231 </v>
   <v>      -0.15384615      -0.46153846       0.30769231 </v>
   <v>      -0.07692308      -0.46153846       0.30769231 </v>
   <v>       0.00000000      -0.38461538       0.30769231 </v>
   <v>       0.07692308      -0.38461538       0.30769231 </v>
   <v>       0.15384615      -0.38461538       0.30769231 </v>
   <v>       0.23076923      -0.38461538       0.30769231 </v>
   <v>       0.30769231      -0.38461538       0.30769231 </v>
   <v>       0.38461538      -0.38461538       0.30769231 </v>
   <v>       0.46153846      -0.38461538       0.30769231 </v>
   <v>      -0.46153846      -0.38461538       0.30769231 </v>
   <v>      -0.38461538      -0.38461538       0.30769231 </v>
   <v>      -0.30769231      -0.38461538       0.30769231 </v>
   <v>      -0.23076923      -0.38461538       0.30769231 </v>
   <v>      -0.15384615      -0.38461538       0.30769231 </v>
   <v>      -0.07692308      -0.38461538       0.30769231 </v>
   <v>       0.00000000      -0.30769231       0.30769231 </v>
   <v>       0.07692308      -0.30769231       0.30769231 </v>
   <v>       0.15384615      -0.30769231       0.30769231 </v>
   <v>       0.23076923      -0.30769231       0.30769231 </v>
   <v>       0.30769231      -0.30769231       0.30769231 </v>
   <v>       0.38461538      -0.30769231       0.30769231 </v>
   <v>       0.46153846      -0.30769231       0.30769231 </v>
   <v>      -0.46153846      -0.30769231       0.30769231 </v>
   <v>      -0.38461538      -0.30769231       0.30769231 </v>
   <v>      -0.30769231      -0.30769231       0.30769231 </v>
   <v>      -0.23076923      -0.30769231       0.30769231 </v>
   <v>      -0.15384615      -0.30769231       0.30769231 </v>
   <v>      -0.07692308      -0.30769231       0.30769231 </v>
   <v>       0.00000000      -0.23076923       0.30769231 </v>
   <v>       0.07692308      -0.23076923       0.30769231 </v>
   <v>       0.15384615      -0.23076923       0.30769231 </v>
   <v>       0.23076923      -0.23076923       0.30769231 </v>
   <v>       0.30769231      -0.23076923       0.30769231 </v>
   <v>       0.38461538      -0.23076923       0.30769231 </v>
   <v>       0.46153846      -0.23076923       0.30769231 </v>
   <v>      -0.46153846      -0.23076923       0.30769231 </v>
   <v>      -0.38461538      -0.23076923       0.30769231 </v>
   <v>      -0.30769231      -0.23076923       0.30769231 </v>
   <v>      -0.23076923      -0.23076923       0.30769231 </v>
   <v>      -0.15384615      -0.23076923       0.30769231 </v>
   <v>      -0.07692308      -0.23076923       0.30769231 </v>
   <v>       0.00000000      -0.15384615       0.30769231 </v>
   <v>       0.07692308      -0.15384615       0.30769231 </v>
   <v>       0.15384615      -0.15384615       0.30769231 </v>
   <v>       0.23076923      -0.15384615       0.30769231 </v>
   <v>       0.30769231      -0.15384615       0.30769231 </v>
   <v>       0.38461538      -0.15384615       0.30769231 </v>
   <v>       0.46153846      -0.15384615       0.30769231 </v>
   <v>      -0.46153846      -0.15384615       0.30769231 </v>
   <v>      -0.38461538      -0.15384615       0.30769231 </v>
   <v>      -0.30769231      -0.15384615       0.30769231 </v>
   <v>      -0.23076923      -0.15384615       0.30769231 </v>
   <v>      -0.15384615      -0.15384615       0.30769231 </v>
   <v>      -0.07692308      -0.15384615       0.30769231 </v>
   <v>       0.00000000      -0.07692308       0.30769231 </v>
   <v>       0.07692308      -0.07692308       0.30769231 </v>
   <v>       0.15384615      -0.07692308       0.30769231 </v>
   <v>       0.23076923      -0.07692308       0.30769231 </v>
   <v>       0.30769231      -0.07692308       0.30769231 </v>
   <v>       0.38461538      -0.07692308       0.30769231 </v>
   <v>       0.46153846      -0.07692308       0.30769231 </v>
   <v>      -0.46153846      -0.07692308       0.30769231 </v>
   <v>      -0.38461538      -0.07692308       0.30769231 </v>
   <v>      -0.30769231      -0.07692308       0.30769231 </v>
   <v>      -0.23076923      -0.07692308       0.30769231 </v>
   <v>      -0.15384615      -0.07692308       0.30769231 </v>
   <v>      -0.07692308      -0.07692308       0.30769231 </v>
   <v>       0.00000000       0.00000000       0.38461538 </v>
   <v>       0.07692308      -0.00000000       0.38461538 </v>
   <v>       0.15384615       0.00000000       0.38461538 </v>
   <v>       0.23076923       0.00000000       0.38461538 </v>
   <v>       0.30769231      -0.00000000       0.38461538 </v>
   <v>       0.38461538      -0.00000000       0.38461538 </v>
   <v>       0.46153846       0.00000000       0.38461538 </v>
   <v>      -0.46153846       0.00000000       0.38461538 </v>
   <v>      -0.38461538       0.00000000       0.38461538 </v>
   <v>      -0.30769231      -0.00000000       0.38461538 </v>
   <v>      -0.23076923       0.00000000       0.38461538 </v>
   <v>      -0.15384615       0.00000000       0.38461538 </v>
   <v>      -0.07692308       0.00000000       0.38461538 </v>
   <v>       0.00000000       0.07692308       0.38461538 </v>
   <v>       0.07692308       0.07692308       0.38461538 </v>
   <v>       0.15384615       0.07692308       0.38461538 </v>
   <v>       0.23076923       0.07692308       0.38461538 </v>
   <v>       0.30769231       0.07692308       0.38461538 </v>
   <v>       0.38461538       0.07692308       0.38461538 </v>
   <v>       0.46153846       0.07692308       0.38461538 </v>
   <v>      -0.46153846       0.07692308       0.38461538 </v>
   <v>      -0.38461538       0.07692308       0.38461538 </v>
   <v>      -0.30769231       0.07692308       0.38461538 </v>
   <v>      -0.23076923       0.07692308       0.38461538 </v>
   <v>      -0.15384615       0.07692308       0.38461538 </v>
   <v>      -0.07692308       0.07692308       0.38461538 </v>
   <v>       0.00000000       0.15384615       0.38461538 </v>
   <v>       0.07692308       0.15384615       0.38461538 </v>
   <v>       0.15384615       0.15384615       0.38461538 </v>
   <v>       0.23076923       0.15384615       0.38461538 </v>
   <v>       0.30769231       0.15384615       0.38461538 </v>
   <v>       0.38461538       0.15384615       0.38461538 </v>
   <v>       0.46153846       0.15384615       0.38461538 </v>
   <v>      -0.46153846       0.15384615       0.38461538 </v>
   <v>      -0.38461538       0.15384615       0.38461538 </v>
   <v>      -0.30769231       0.15384615       0.38461538 </v>
   <v>      -0.23076923       0.15384615       0.38461538 </v>
   <v>      -0.15384615       0.15384615       0.38461538 </v>
   <v>      -0.07692308       0.15384615       0.38461538 </v>
   <v>      -0.00000000       0.23076923       0.38461538 </v>
   <v>       0.07692308       0.23076923       0.38461538 </v>
   <v>       0.15384615       0.23076923       0.38461538 </v>
   <v>       0.23076923       0.23076923       0.38461538 </v>
   <v>       0.30769231       0.23076923       0.38461538 </v>
   <v>       0.38461538       0.23076923       0.38461538 </v>
   <v>       0.46153846       0.23076923       0.38461538 </v>
   <v>      -0.46153846       0.23076923       0.38461538 </v>
   <v>      -0.38461538       0.23076923       0.38461538 </v>
   <v>      -0.30769231       0.23076923       0.38461538 </v>
   <v>      -0.23076923       0.23076923       0.38461538 </v>
   <v>      -0.15384615       0.23076923       0.38461538 </v>
   <v>      -0.07692308       0.23076923       0.38461538 </v>
   <v>       0.00000000       0.30769231       0.38461538 </v>
   <v>       0.07692308       0.30769231       0.38461538 </v>
   <v>       0.15384615       0.30769231       0.38461538 </v>
   <v>       0.23076923       0.30769231       0.38461538 </v>
   <v>       0.30769231       0.30769231       0.38461538 </v>
   <v>       0.38461538       0.30769231       0.38461538 </v>
   <v>       0.46153846       0.30769231       0.38461538 </v>
   <v>      -0.46153846       0.30769231       0.38461538 </v>
   <v>      -0.38461538       0.30769231       0.38461538 </v>
   <v>      -0.30769231       0.30769231       0.38461538 </v>
   <v>      -0.23076923       0.30769231       0.38461538 </v>
   <v>      -0.15384615       0.30769231       0.38461538 </v>
   <v>      -0.07692308       0.30769231       0.38461538 </v>
   <v>      -0.00000000       0.38461538       0.38461538 </v>
   <v>       0.07692308       0.38461538       0.38461538 </v>
   <v>       0.15384615       0.38461538       0.38461538 </v>
   <v>       0.23076923       0.38461538       0.38461538 </v>
   <v>       0.30769231       0.38461538       0.38461538 </v>
   <v>       0.38461538       0.38461538       0.38461538 </v>
   <v>       0.46153846       0.38461538       0.38461538 </v>
   <v>      -0.46153846       0.38461538       0.38461538 </v>
   <v>      -0.38461538       0.38461538       0.38461538 </v>
   <v>      -0.30769231       0.38461538       0.38461538 </v>
   <v>      -0.23076923       0.38461538       0.38461538 </v>
   <v>      -0.15384615       0.38461538       0.38461538 </v>
   <v>      -0.07692308       0.38461538       0.38461538 </v>
   <v>      -0.00000000       0.46153846       0.38461538 </v>
   <v>       0.07692308       0.46153846       0.38461538 </v>
   <v>       0.15384615       0.46153846       0.38461538 </v>
   <v>       0.23076923       0.46153846       0.38461538 </v>
   <v>       0.30769231       0.46153846       0.38461538 </v>
   <v>       0.38461538       0.46153846       0.38461538 </v>
   <v>       0.46153846       0.46153846       0.38461538 </v>
   <v>      -0.46153846       0.46153846       0.38461538 </v>
   <v>      -0.38461538       0.46153846       0.38461538 </v>
   <v>      -0.30769231       0.46153846       0.38461538 </v>
   <v>      -0.23076923       0.46153846       0.38461538 </v>
   <v>      -0.15384615       0.46153846       0.38461538 </v>
   <v>      -0.07692308       0.46153846       0.38461538 </v>
   <v>       0.00000000      -0.46153846       0.38461538 </v>
   <v>       0.07692308      -0.46153846       0.38461538 </v>
   <v>       0.15384615      -0.46153846       0.38461538 </v>
   <v>       0.23076923      -0.46153846       0.38461538 </v>
   <v>       0.30769231      -0.46153846       0.38461538 </v>
   <v>       0.38461538      -0.46153846       0.38461538 </v>
   <v>       0.46153846      -0.46153846       0.38461538 </v>
   <v>      -0.46153846      -0.46153846       0.38461538 </v>
   <v>      -0.38461538      -0.46153846       0.38461538 </v>
   <v>      -0.30769231      -0.46153846       0.38461538 </v>
   <v>      -0.23076923      -0.46153846       0.38461538 </v>
   <v>      -0.15384615      -0.46153846       0.38461538 </v>
   <v>      -0.07692308      -0.46153846       0.38461538 </v>
   <v>       0.00000000      -0.38461538       0.38461538 </v>
   <v>       0.07692308      -0.38461538       0.38461538 </v>
   <v>       0.15384615      -0.38461538       0.38461538 </v>
   <v>       0.23076923      -0.38461538       0.38461538 </v>
   <v>       0.30769231      -0.38461538       0.38461538 </v>
   <v>       0.38461538      -0.38461538       0.38461538 </v>
   <v>       0.46153846      -0.38461538       0.38461538 </v>
   <v>      -0.46153846      -0.38461538       0.38461538 </v>
   <v>      -0.38461538      -0.38461538       0.38461538 </v>
   <v>      -0.30769231      -0.38461538       0.38461538 </v>
   <v>      -0.23076923      -0.38461538       0.38461538 </v>
   <v>      -0.15384615      -0.38461538       0.38461538 </v>
   <v>      -0.07692308      -0.38461538       0.38461538 </v>
   <v>       0.00000000      -0.30769231       0.38461538 </v>
   <v>       0.07692308      -0.30769231       0.38461538 </v>
   <v>       0.15384615      -0.30769231       0.38461538 </v>
   <v>       0.23076923      -0.30769231       0.38461538 </v>
   <v>       0.30769231      -0.30769231       0.38461538 </v>
   <v>       0.38461538      -0.30769231       0.38461538 </v>
   <v>       0.46153846      -0.30769231       0.38461538 </v>
   <v>      -0.46153846      -0.30769231       0.38461538 </v>
   <v>      -0.38461538      -0.30769231       0.38461538 </v>
   <v>      -0.30769231      -0.30769231       0.38461538 </v>
   <v>      -0.23076923      -0.30769231       0.38461538 </v>
   <v>      -0.15384615      -0.30769231       0.38461538 </v>
   <v>      -0.07692308      -0.30769231       0.38461538 </v>
   <v>       0.00000000      -0.23076923       0.38461538 </v>
   <v>       0.07692308      -0.23076923       0.38461538 </v>
   <v>       0.15384615      -0.23076923       0.38461538 </v>
   <v>       0.23076923      -0.23076923       0.38461538 </v>
   <v>       0.30769231      -0.23076923       0.38461538 </v>
   <v>       0.38461538      -0.23076923       0.38461538 </v>
   <v>       0.46153846      -0.23076923       0.38461538 </v>
   <v>      -0.46153846      -0.23076923       0.38461538 </v>
   <v>      -0.38461538      -0.23076923       0.38461538 </v>
   <v>      -0.30769231      -0.23076923       0.38461538 </v>
   <v>      -0.23076923      -0.23076923       0.38461538 </v>
   <v>      -0.15384615      -0.23076923       0.38461538 </v>
   <v>      -0.07692308      -0.23076923       0.38461538 </v>
   <v>       0.00000000      -0.15384615       0.38461538 </v>
   <v>       0.07692308      -0.15384615       0.38461538 </v>
   <v>       0.15384615      -0.15384615       0.38461538 </v>
   <v>       0.23076923      -0.15384615       0.38461538 </v>
   <v>       0.30769231      -0.15384615       0.38461538 </v>
   <v>       0.38461538      -0.15384615       0.38461538 </v>
   <v>       0.46153846      -0.15384615       0.38461538 </v>
   <v>      -0.46153846      -0.15384615       0.38461538 </v>
   <v>      -0.38461538      -0.15384615       0.38461538 </v>
   <v>      -0.30769231      -0.15384615       0.38461538 </v>
   <v>      -0.23076923      -0.15384615       0.38461538 </v>
   <v>      -0.15384615      -0.15384615       0.38461538 </v>
   <v>      -0.07692308      -0.15384615       0.38461538 </v>
   <v>       0.00000000      -0.07692308       0.38461538 </v>
   <v>       0.07692308      -0.07692308       0.38461538 </v>
   <v>       0.15384615      -0.07692308       0.38461538 </v>
   <v>       0.23076923      -0.07692308       0.38461538 </v>
   <v>       0.30769231      -0.07692308       0.38461538 </v>
   <v>       0.38461538      -0.07692308       0.38461538 </v>
   <v>       0.46153846      -0.07692308       0.38461538 </v>
   <v>      -0.46153846      -0.07692308       0.38461538 </v>
   <v>      -0.38461538      -0.07692308       0.38461538 </v>
   <v>      -0.30769231      -0.07692308       0.38461538 </v>
   <v>      -0.23076923      -0.07692308       0.38461538 </v>
   <v>      -0.15384615      -0.07692308       0.38461538 </v>
   <v>      -0.07692308      -0.07692308       0.38461538 </v>
   <v>       0.00000000       0.00000000       0.46153846 </v>
   <v>       0.07692308       0.00000000       0.46153846 </v>
   <v>       0.15384615       0.00000000       0.46153846 </v>
   <v>       0.23076923       0.00000000       0.46153846 </v>
   <v>       0.30769231      -0.00000000       0.46153846 </v>
   <v>       0.38461538      -0.00000000       0.46153846 </v>
   <v>       0.46153846      -0.00000000       0.46153846 </v>
   <v>      -0.46153846       0.00000000       0.46153846 </v>
   <v>      -0.38461538       0.00000000       0.46153846 </v>
   <v>      -0.30769231       0.00000000       0.46153846 </v>
   <v>      -0.23076923       0.00000000       0.46153846 </v>
   <v>      -0.15384615       0.00000000       0.46153846 </v>
   <v>      -0.07692308       0.00000000       0.46153846 </v>
   <v>       0.00000000       0.07692308       0.46153846 </v>
   <v>       0.07692308       0.07692308       0.46153846 </v>
   <v>       0.15384615       0.07692308       0.46153846 </v>
   <v>       0.23076923       0.07692308       0.46153846 </v>
   <v>       0.30769231       0.07692308       0.46153846 </v>
   <v>       0.38461538       0.07692308       0.46153846 </v>
   <v>       0.46153846       0.07692308       0.46153846 </v>
   <v>      -0.46153846       0.07692308       0.46153846 </v>
   <v>      -0.38461538       0.07692308       0.46153846 </v>
   <v>      -0.30769231       0.07692308       0.46153846 </v>
   <v>      -0.23076923       0.07692308       0.46153846 </v>
   <v>      -0.15384615       0.07692308       0.46153846 </v>
   <v>      -0.07692308       0.07692308       0.46153846 </v>
   <v>      -0.00000000       0.15384615       0.46153846 </v>
   <v>       0.07692308       0.15384615       0.46153846 </v>
   <v>       0.15384615       0.15384615       0.46153846 </v>
   <v>       0.23076923       0.15384615       0.46153846 </v>
   <v>       0.30769231       0.15384615       0.46153846 </v>
   <v>       0.38461538       0.15384615       0.46153846 </v>
   <v>       0.46153846       0.15384615       0.46153846 </v>
   <v>      -0.46153846       0.15384615       0.46153846 </v>
   <v>      -0.38461538       0.15384615       0.46153846 </v>
   <v>      -0.30769231       0.15384615       0.46153846 </v>
   <v>      -0.23076923       0.15384615       0.46153846 </v>
   <v>      -0.15384615       0.15384615       0.46153846 </v>
   <v>      -0.07692308       0.15384615       0.46153846 </v>
   <v>       0.00000000       0.23076923       0.46153846 </v>
   <v>       0.07692308       0.23076923       0.46153846 </v>
   <v>       0.15384615       0.23076923       0.46153846 </v>
   <v>       0.23076923       0.23076923       0.46153846 </v>
   <v>       0.30769231       0.23076923       0.46153846 </v>
   <v>       0.38461538       0.23076923       0.46153846 </v>
   <v>       0.46153846       0.23076923       0.46153846 </v>
   <v>      -0.46153846       0.23076923       0.46153846 </v>
   <v>      -0.38461538       0.23076923       0.46153846 </v>
   <v>      -0.30769231       0.23076923       0.46153846 </v>
   <v>      -0.23076923       0.23076923       0.46153846 </v>
   <v>      -0.15384615       0.23076923       0.46153846 </v>
   <v>      -0.07692308       0.23076923       0.46153846 </v>
   <v>       0.00000000       0.30769231       0.46153846 </v>
   <v>       0.07692308       0.30769231       0.46153846 </v>
   <v>       0.15384615       0.30769231       0.46153846 </v>
   <v>       0.23076923       0.30769231       0.46153846 </v>
   <v>       0.30769231       0.30769231       0.46153846 </v>
   <v>       0.38461538       0.30769231       0.46153846 </v>
   <v>       0.46153846       0.30769231       0.46153846 </v>
   <v>      -0.46153846       0.30769231       0.46153846 </v>
   <v>      -0.38461538       0.30769231       0.46153846 </v>
   <v>      -0.30769231       0.30769231       0.46153846 </v>
   <v>      -0.23076923       0.30769231       0.46153846 </v>
   <v>      -0.15384615       0.30769231       0.46153846 </v>
   <v>      -0.07692308       0.30769231       0.46153846 </v>
   <v>      -0.00000000       0.38461538       0.46153846 </v>
   <v>       0.07692308       0.38461538       0.46153846 </v>
   <v>       0.15384615       0.38461538       0.46153846 </v>
   <v>       0.23076923       0.38461538       0.46153846 </v>
   <v>       0.30769231       0.38461538       0.46153846 </v>
   <v>       0.38461538       0.38461538       0.46153846 </v>
   <v>       0.46153846       0.38461538       0.46153846 </v>
   <v>      -0.46153846       0.38461538       0.46153846 </v>
   <v>      -0.38461538       0.38461538       0.46153846 </v>
   <v>      -0.30769231       0.38461538       0.46153846 </v>
   <v>      -0.23076923       0.38461538       0.46153846 </v>
   <v>      -0.15384615       0.38461538       0.46153846 </v>
   <v>      -0.07692308       0.38461538       0.46153846 </v>
   <v>      -0.00000000       0.46153846       0.46153846 </v>
   <v>       0.07692308       0.46153846       0.46153846 </v>
   <v>       0.15384615       0.46153846       0.46153846 </v>
   <v>       0.23076923       0.46153846       0.46153846 </v>
   <v>       0.30769231       0.46153846       0.46153846 </v>
   <v>       0.38461538       0.46153846       0.46153846 </v>
   <v>       0.46153846       0.46153846       0.46153846 </v>
   <v>      -0.46153846       0.46153846       0.46153846 </v>
   <v>      -0.38461538       0.46153846       0.46153846 </v>
   <v>      -0.30769231       0.46153846       0.46153846 </v>
   <v>      -0.23076923       0.46153846       0.46153846 </v>
   <v>      -0.15384615       0.46153846       0.46153846 </v>
   <v>      -0.07692308       0.46153846       0.46153846 </v>
   <v>       0.00000000      -0.46153846       0.46153846 </v>
   <v>       0.07692308      -0.46153846       0.46153846 </v>
   <v>       0.15384615      -0.46153846       0.46153846 </v>
   <v>       0.23076923      -0.46153846       0.46153846 </v>
   <v>       0.30769231      -0.46153846       0.46153846 </v>
   <v>       0.38461538      -0.46153846       0.46153846 </v>
   <v>       0.46153846      -0.46153846       0.46153846 </v>
   <v>      -0.46153846      -0.46153846       0.46153846 </v>
   <v>      -0.38461538      -0.46153846       0.46153846 </v>
   <v>      -0.30769231      -0.46153846       0.46153846 </v>
   <v>      -0.23076923      -0.46153846       0.46153846 </v>
   <v>      -0.15384615      -0.46153846       0.46153846 </v>
   <v>      -0.07692308      -0.46153846       0.46153846 </v>
   <v>       0.00000000      -0.38461538       0.46153846 </v>
   <v>       0.07692308      -0.38461538       0.46153846 </v>
   <v>       0.15384615      -0.38461538       0.46153846 </v>
   <v>       0.23076923      -0.38461538       0.46153846 </v>
   <v>       0.30769231      -0.38461538       0.46153846 </v>
   <v>       0.38461538      -0.38461538       0.46153846 </v>
   <v>       0.46153846      -0.38461538       0.46153846 </v>
   <v>      -0.46153846      -0.38461538       0.46153846 </v>
   <v>      -0.38461538      -0.38461538       0.46153846 </v>
   <v>      -0.30769231      -0.38461538       0.46153846 </v>
   <v>      -0.23076923      -0.38461538       0.46153846 </v>
   <v>      -0.15384615      -0.38461538       0.46153846 </v>
   <v>      -0.07692308      -0.38461538       0.46153846 </v>
   <v>       0.00000000      -0.30769231       0.46153846 </v>
   <v>       0.07692308      -0.30769231       0.46153846 </v>
   <v>       0.15384615      -0.30769231       0.46153846 </v>
   <v>       0.23076923      -0.30769231       0.46153846 </v>
   <v>       0.30769231      -0.30769231       0.46153846 </v>
   <v>       0.38461538      -0.30769231       0.46153846 </v>
   <v>       0.46153846      -0.30769231       0.46153846 </v>
   <v>      -0.46153846      -0.30769231       0.46153846 </v>
   <v>      -0.38461538      -0.30769231       0.46153846 </v>
   <v>      -0.30769231      -0.30769231       0.46153846 </v>
   <v>      -0.23076923      -0.30769231       0.46153846 </v>
   <v>      -0.15384615      -0.30769231       0.46153846 </v>
   <v>      -0.07692308      -0.30769231       0.46153846 </v>
   <v>      -0.00000000      -0.23076923       0.46153846 </v>
   <v>       0.07692308      -0.23076923       0.46153846 </v>
   <v>       0.15384615      -0.23076923       0.46153846 </v>
   <v>       0.23076923      -0.23076923       0.46153846 </v>
   <v>       0.30769231      -0.23076923       0.46153846 </v>
   <v>       0.38461538      -0.23076923       0.46153846 </v>
   <v>       0.46153846      -0.23076923       0.46153846 </v>
   <v>      -0.46153846      -0.23076923       0.46153846 </v>
   <v>      -0.38461538      -0.23076923       0.46153846 </v>
   <v>      -0.30769231      -0.23076923       0.46153846 </v>
   <v>      -0.23076923      -0.23076923       0.46153846 </v>
   <v>      -0.15384615      -0.23076923       0.46153846 </v>
   <v>      -0.07692308      -0.23076923       0.46153846 </v>
   <v>      -0.00000000      -0.15384615       0.46153846 </v>
   <v>       0.07692308      -0.15384615       0.46153846 </v>
   <v>       0.15384615      -0.15384615       0.46153846 </v>
   <v>       0.23076923      -0.15384615       0.46153846 </v>
   <v>       0.30769231      -0.15384615       0.46153846 </v>
   <v>       0.38461538      -0.15384615       0.46153846 </v>
   <v>       0.46153846      -0.15384615       0.46153846 </v>
   <v>      -0.46153846      -0.15384615       0.46153846 </v>
   <v>      -0.38461538      -0.15384615       0.46153846 </v>
   <v>      -0.30769231      -0.15384615       0.46153846 </v>
   <v>      -0.23076923      -0.15384615       0.46153846 </v>
   <v>      -0.15384615      -0.15384615       0.46153846 </v>
   <v>      -0.07692308      -0.15384615       0.46153846 </v>
   <v>       0.00000000      -0.07692308       0.46153846 </v>
   <v>       0.07692308      -0.07692308       0.46153846 </v>
   <v>       0.15384615      -0.07692308       0.46153846 </v>
   <v>       0.23076923      -0.07692308       0.46153846 </v>
   <v>       0.30769231      -0.07692308       0.46153846 </v>
   <v>       0.38461538      -0.07692308       0.46153846 </v>
   <v>       0.46153846      -0.07692308       0.46153846 </v>
   <v>      -0.46153846      -0.07692308       0.46153846 </v>
   <v>      -0.38461538      -0.07692308       0.46153846 </v>
   <v>      -0.30769231      -0.07692308       0.46153846 </v>
   <v>      -0.23076923      -0.07692308       0.46153846 </v>
   <v>      -0.15384615      -0.07692308       0.46153846 </v>
   <v>      -0.07692308      -0.07692308       0.46153846 </v>
  </varray>
  <varray name="weights" >
   <v>       0.00045517 </v>
   <v>       0.00091033 </v>
   <v>       0.00091033 </v>
   <v>       0.00091033 </v>
   <v>       0.00091033 </v>
   <v>       0.00091033 </v>
   <v>       0.00091033 </v>
   <v>       0.00091033 </v>
   <v>       0.00091033 </v>
   <v>       0.00091033 </v>
   <v>       0.00091033 </v>
   <v>       0.00091033 </v>
   <v>       0.00091033 </v>
   <v>       0.00091033 </v>
   <v>       0.00091033 </v>
   <v>       0.00091033 </v>
   <v>       0.00091033 </v>
   <v>       0.00091033 </v>
   <v>       0.00091033 </v>
   <v>       0.00091033 </v>
   <v>       0.00091033 </v>
   <v>       0.00091033 </v>
   <v>       0.00091033 </v>
   <v>       0.00091033 </v>
   <v>       0.00091033 </v>
   <v>       0.00091033 </v>
   <v>       0.00091033 </v>
   <v>       0.00091033 </v>
   <v>       0.00091033 </v>
   <v>       0.00091033 </v>
   <v>       0.00091033 </v>
   <v>       0.00091033 </v>
   <v>       0.00091033 </v>
   <v>       0.00091033 </v>
   <v>       0.00091033 </v>
   <v>       0.00091033 </v>
   <v>       0.00091033 </v>
   <v>       0.00091033 </v>
   <v>       0.00091033 </v>
   <v>       0.00091033 </v>
   <v>       0.00091033 </v>
   <v>       0.00091033 </v>
   <v>       0.00091033 </v>
   <v>       0.00091033 </v>
   <v>       0.00091033 </v>
   <v>       0.00091033 </v>
   <v>       0.00091033 </v>
   <v>       0.00091033 </v>
   <v>       0.00091033 </v>
   <v>       0.00091033 </v>
   <v>       0.00091033 </v>
   <v>       0.00091033 </v>
   <v>       0.00091033 </v>
   <v>       0.00091033 </v>
   <v>       0.00091033 </v>
   <v>       0.00091033 </v>
   <v>       0.00091033 </v>
   <v>       0.00091033 </v>
   <v>       0.00091033 </v>
   <v>       0.00091033 </v>
   <v>       0.00091033 </v>
   <v>       0.00091033 </v>
   <v>       0.00091033 </v>
   <v>       0.00091033 </v>
   <v>       0.00091033 </v>
   <v>       0.00091033 </v>
   <v>       0.00091033 </v>
   <v>       0.00091033 </v>
   <v>       0.00091033 </v>
   <v>       0.00091033 </v>
   <v>       0.00091033 </v>
   <v>       0.00091033 </v>
   <v>       0.00091033 </v>
   <v>       0.00091033 </v>
   <v>       0.00091033 </v>
   <v>       0.00091033 </v>
   <v>       0.00091033 </v>
   <v>       0.00091033 </v>
   <v>       0.00091033 </v>
   <v>       0.00091033 </v>
   <v>       0.00091033 </v>
   <v>       0.00091033 </v>
   <v>       0.00091033 </v>
   <v>       0.00091033 </v>
   <v>       0.00091033 </v>
   <v>       0.00091033 </v>
   <v>       0.00091033 </v>
   <v>       0.00091033 </v>
   <v>       0.00091033 </v>
   <v>       0.00091033 </v>
   <v>       0.00091033 </v>
   <v>       0.00091033 </v>
   <v>       0.00091033 </v>
   <v>       0.00091033 </v>
   <v>       0.00091033 </v>
   <v>       0.00091033 </v>
   <v>       0.00091033 </v>
   <v>       0.00091033 </v>
   <v>       0.00091033 </v>
   <v>       0.00091033 </v>
   <v>       0.00091033 </v>
   <v>       0.00091033 </v>
   <v>       0.00091033 </v>
   <v>       0.00091033 </v>
   <v>       0.00091033 </v>
   <v>       0.00091033 </v>
   <v>       0.00091033 </v>
   <v>       0.00091033 </v>
   <v>       0.00091033 </v>
   <v>       0.00091033 </v>
   <v>       0.00091033 </v>
   <v>       0.00091033 </v>
   <v>       0.00091033 </v>
   <v>       0.00091033 </v>
   <v>       0.00091033 </v>
   <v>       0.00091033 </v>
   <v>       0.00091033 </v>
   <v>       0.00091033 </v>
   <v>       0.00091033 </v>
   <v>       0.00091033 </v>
   <v>       0.00091033 </v>
   <v>       0.00091033 </v>
   <v>       0.00091033 </v>
   <v>       0.00091033 </v>
   <v>       0.00091033 </v>
   <v>       0.00091033 </v>
   <v>       0.00091033 </v>
   <v>       0.00091033 </v>
   <v>       0.00091033 </v>
   <v>       0.00091033 </v>
   <v>       0.00091033 </v>
   <v>       0.00091033 </v>
   <v>       0.00091033 </v>
   <v>       0.00091033 </v>
   <v>       0.00091033 </v>
   <v>       0.00091033 </v>
   <v>       0.00091033 </v>
   <v>       0.00091033 </v>
   <v>       0.00091033 </v>
   <v>       0.00091033 </v>
   <v>       0.00091033 </v>
   <v>       0.00091033 </v>
   <v>       0.00091033 </v>
   <v>       0.00091033 </v>
   <v>       0.00091033 </v>
   <v>       0.00091033 </v>
   <v>       0.00091033 </v>
   <v>       0.00091033 </v>
   <v>       0.00091033 </v>
   <v>       0.00091033 </v>
   <v>       0.00091033 </v>
   <v>       0.00091033 </v>
   <v>       0.00091033 </v>
   <v>       0.00091033 </v>
   <v>       0.00091033 </v>
   <v>       0.00091033 </v>
   <v>       0.00091033 </v>
   <v>       0.00091033 </v>
   <v>       0.00091033 </v>
   <v>       0.00091033 </v>
   <v>       0.00091033 </v>
   <v>       0.00091033 </v>
   <v>       0.00091033 </v>
   <v>       0.00091033 </v>
   <v>       0.00091033 </v>
   <v>       0.00091033 </v>
   <v>       0.00091033 </v>
   <v>       0.00091033 </v>
   <v>       0.00091033 </v>
   <v>       0.00091033 </v>
   <v>       0.00091033 </v>
   <v>       0.00091033 </v>
   <v>       0.00091033 </v>
   <v>       0.00091033 </v>
   <v>       0.00091033 </v>
   <v>       0.00091033 </v>
   <v>       0.00091033 </v>
   <v>       0.00091033 </v>
   <v>       0.00091033 </v>
   <v>       0.00091033 </v>
   <v>       0.00091033 </v>
   <v>       0.00091033 </v>
   <v>       0.00091033 </v>
   <v>       0.00091033 </v>
   <v>       0.00091033 </v>
   <v>       0.00091033 </v>
   <v>       0.00091033 </v>
   <v>       0.00091033 </v>
   <v>       0.00091033 </v>
   <v>       0.00091033 </v>
   <v>       0.00091033 </v>
   <v>       0.00091033 </v>
   <v>       0.00091033 </v>
   <v>       0.00091033 </v>
   <v>       0.00091033 </v>
   <v>       0.00091033 </v>
   <v>       0.00091033 </v>
   <v>       0.00091033 </v>
   <v>       0.00091033 </v>
   <v>       0.00091033 </v>
   <v>       0.00091033 </v>
   <v>       0.00091033 </v>
   <v>       0.00091033 </v>
   <v>       0.00091033 </v>
   <v>       0.00091033 </v>
   <v>       0.00091033 </v>
   <v>       0.00091033 </v>
   <v>       0.00091033 </v>
   <v>       0.00091033 </v>
   <v>       0.00091033 </v>
   <v>       0.00091033 </v>
   <v>       0.00091033 </v>
   <v>       0.00091033 </v>
   <v>       0.00091033 </v>
   <v>       0.00091033 </v>
   <v>       0.00091033 </v>
   <v>       0.00091033 </v>
   <v>       0.00091033 </v>
   <v>       0.00091033 </v>
   <v>       0.00091033 </v>
   <v>       0.00091033 </v>
   <v>       0.00091033 </v>
   <v>       0.00091033 </v>
   <v>       0.00091033 </v>
   <v>       0.00091033 </v>
   <v>       0.00091033 </v>
   <v>       0.00091033 </v>
   <v>       0.00091033 </v>
   <v>       0.00091033 </v>
   <v>       0.00091033 </v>
   <v>       0.00091033 </v>
   <v>       0.00091033 </v>
   <v>       0.00091033 </v>
   <v>       0.00091033 </v>
   <v>       0.00091033 </v>
   <v>       0.00091033 </v>
   <v>       0.00091033 </v>
   <v>       0.00091033 </v>
   <v>       0.00091033 </v>
   <v>       0.00091033 </v>
   <v>       0.00091033 </v>
   <v>       0.00091033 </v>
   <v>       0.00091033 </v>
   <v>       0.00091033 </v>
   <v>       0.00091033 </v>
   <v>       0.00091033 </v>
   <v>       0.00091033 </v>
   <v>       0.00091033 </v>
   <v>       0.00091033 </v>
   <v>       0.00091033 </v>
   <v>       0.00091033 </v>
   <v>       0.00091033 </v>
   <v>       0.00091033 </v>
   <v>       0.00091033 </v>
   <v>       0.00091033 </v>
   <v>       0.00091033 </v>
   <v>       0.00091033 </v>
   <v>       0.00091033 </v>
   <v>       0.00091033 </v>
[...]
       <r>   34.0693    0.0000 </r>
       <r>   36.3533    0.0000 </r>
      </set>
      <set comment="kpoint 1092">
       <r>  -43.3428    1.0000 </r>
       <r>  -21.9165    1.0000 </r>
       <r>   -4.4305    1.0000 </r>
       <r>   -2.6107    1.0000 </r>
       <r>   -2.4222    1.0000 </r>
       <r>   14.8182    0.0000 </r>
       <r>   15.9622    0.0000 </r>
       <r>   18.1908    0.0000 </r>
       <r>   20.7269    0.0000 </r>
       <r>   21.8346    0.0000 </r>
       <r>   34.4788    0.0000 </r>
       <r>   37.6803    0.0000 </r>
      </set>
      <set comment="kpoint 1093">
       <r>  -43.3420    1.0000 </r>
       <r>  -21.9006    1.0000 </r>
       <r>   -4.5296    1.0000 </r>
       <r>   -2.5588    1.0000 </r>
       <r>   -2.4591    1.0000 </r>
       <r>   14.9817    0.0000 </r>
       <r>   16.0093    0.0000 </r>
       <r>   18.1598    0.0000 </r>
       <r>   20.8535    0.0000 </r>
       <r>   21.3456    0.0000 </r>
       <r>   34.3842    0.0000 </r>
       <r>   38.8531    0.0000 </r>
      </set>
      <set comment="kpoint 1094">
       <r>  -43.3428    1.0000 </r>
       <r>  -21.9165    1.0000 </r>
       <r>   -4.4305    1.0000 </r>
       <r>   -2.6107    1.0000 </r>
       <r>   -2.4222    1.0000 </r>
       <r>   14.8181    0.0000 </r>
       <r>   15.9622    0.0000 </r>
       <r>   18.1907    0.0000 </r>
       <r>   20.7270    0.0000 </r>
       <r>   21.8345    0.0000 </r>
       <r>   34.4786    0.0000 </r>
       <r>   37.6795    0.0000 </r>
      </set>
      <set comment="kpoint 1095">
       <r>  -43.3452    1.0000 </r>
       <r>  -21.9597    1.0000 </r>
       <r>   -4.1703    1.0000 </r>
       <r>   -2.7369    1.0000 </r>
       <r>   -2.3047    1.0000 </r>
       <r>   14.2852    0.0000 </r>
       <r>   15.7737    0.0000 </r>
       <r>   18.5749    0.0000 </r>
       <r>   20.5133    0.0000 </r>
       <r>   22.9537    0.0000 </r>
       <r>   34.0688    0.0000 </r>
       <r>   36.3521    0.0000 </r>
      </set>
      <set comment="kpoint 1096">
       <r>  -43.3487    1.0000 </r>
       <r>  -22.0202    1.0000 </r>
       <r>   -3.8949    1.0000 </r>
       <r>   -2.7845    1.0000 </r>
       <r>   -2.1309    1.0000 </r>
       <r>   13.3346    0.0000 </r>
       <r>   15.7871    0.0000 </r>
       <r>   19.1500    0.0000 </r>
       <r>   20.2352    0.0000 </r>
       <r>   24.5582    0.0000 </r>
       <r>   32.5906    0.0000 </r>
       <r>   36.2533    0.0000 </r>
      </set>
      <set comment="kpoint 1097">
       <r>  -43.3523    1.0000 </r>
       <r>  -22.0832    1.0000 </r>
       <r>   -3.8319    1.0000 </r>
       <r>   -2.5462    1.0000 </r>
       <r>   -1.9405    1.0000 </r>
       <r>   12.2662    0.0000 </r>
       <r>   16.0729    0.0000 </r>
       <r>   19.5037    0.0000 </r>
       <r>   19.9394    0.0000 </r>
       <r>   26.6458    0.0000 </r>
       <r>   31.3525    0.0000 </r>
       <r>   34.6980    0.0000 </r>
      </set>
      <set comment="kpoint 1098">
       <r>  -43.3554    1.0000 </r>
       <r>  -22.1347    1.0000 </r>
       <r>   -3.9197    1.0000 </r>
       <r>   -2.1503    1.0000 </r>
       <r>   -1.7833    1.0000 </r>
       <r>   11.3777    0.0000 </r>
       <r>   16.5107    0.0000 </r>
       <r>   19.4945    0.0000 </r>
       <r>   19.6826    0.0000 </r>
       <r>   29.0327    0.0000 </r>
       <r>   30.8038    0.0000 </r>
       <r>   32.9086    0.0000 </r>
      </set>
      <set comment="kpoint 1099">
       <r>  -43.3570    1.0000 </r>
       <r>  -22.1633    1.0000 </r>
       <r>   -3.9932    1.0000 </r>
       <r>   -1.8588    1.0000 </r>
       <r>   -1.7118    1.0000 </r>
       <r>   10.8733    0.0000 </r>
       <r>   16.8897    0.0000 </r>
       <r>   19.3785    0.0000 </r>
       <r>   19.4612    0.0000 </r>
       <r>   30.5855    0.0000 </r>
       <r>   31.5070    0.0000 </r>
       <r>   31.6671    0.0000 </r>
      </set>
     </set>
    </set>
   </array>
  </eigenvalues>
  <separator name="orbital magnetization" >
   <v name="MAGDIPOLOUT">      0.00000000      0.00000000      0.00000000</v>
  </separator>
  <dos>
   <i name="efermi">     -1.26266952 </i>
   <total>
    <array>
     <dimension dim="1">gridpoints</dimension>
     <dimension dim="2">spin</dimension>
     <field>energy</field>
     <field>total</field>
     <field>integrated</field>
     <set>
      <set comment="spin 1">
       <r>   -47.7274     0.0000     0.0000 </r>
       <r>   -47.4119     0.0000     0.0000 </r>
       <r>   -47.0963     0.0000     0.0000 </r>
       <r>   -46.7808     0.0000     0.0000 </r>
       <r>   -46.4652     0.0000     0.0000 </r>
       <r>   -46.1497     0.0000     0.0000 </r>
       <r>   -45.8341     0.0000     0.0000 </r>
       <r>   -45.5186     0.0000     0.0000 </r>
       <r>   -45.2030     0.0000     0.0000 </r>
       <r>   -44.8875     0.0000     0.0000 </r>
       <r>   -44.5719     0.0000     0.0000 </r>
       <r>   -44.2564     0.0000     0.0000 </r>
       <r>   -43.9408     0.0000     0.0000 </r>
       <r>   -43.6253     0.0000     0.0000 </r>
       <r>   -43.3097     5.8160     2.0000 </r>
       <r>   -42.9942     0.0000     2.0000 </r>
       <r>   -42.6786     0.0000     2.0000 </r>
       <r>   -42.3631     0.0000     2.0000 </r>
       <r>   -42.0475     0.0000     2.0000 </r>
       <r>   -41.7320     0.0000     2.0000 </r>
       <r>   -41.4164     0.0000     2.0000 </r>
       <r>   -41.1009     0.0000     2.0000 </r>
       <r>   -40.7853     0.0000     2.0000 </r>
       <r>   -40.4698     0.0000     2.0000 </r>
       <r>   -40.1542     0.0000     2.0000 </r>
       <r>   -39.8387     0.0000     2.0000 </r>
       <r>   -39.5231     0.0000     2.0000 </r>
       <r>   -39.2076     0.0000     2.0000 </r>
       <r>   -38.8920     0.0000     2.0000 </r>
       <r>   -38.5765     0.0000     2.0000 </r>
       <r>   -38.2609     0.0000     2.0000 </r>
       <r>   -37.9454     0.0000     2.0000 </r>
       <r>   -37.6298     0.0000     2.0000 </r>
       <r>   -37.3143     0.0000     2.0000 </r>
       <r>   -36.9987     0.0000     2.0000 </r>
       <r>   -36.6832     0.0000     2.0000 </r>
       <r>   -36.3676     0.0000     2.0000 </r>
       <r>   -36.0521     0.0000     2.0000 </r>
       <r>   -35.7365     0.0000     2.0000 </r>
       <r>   -35.4210     0.0000     2.0000 </r>
       <r>   -35.1054     0.0000     2.0000 </r>
       <r>   -34.7899     0.0000     2.0000 </r>
       <r>   -34.4743     0.0000     2.0000 </r>
       <r>   -34.1588     0.0000     2.0000 </r>
       <r>   -33.8432     0.0000     2.0000 </r>
       <r>   -33.5277     0.0000     2.0000 </r>
       <r>   -33.2121     0.0000     2.0000 </r>
       <r>   -32.8966     0.0000     2.0000 </r>
       <r>   -32.5810     0.0000     2.0000 </r>
       <r>   -32.2655     0.0000     2.0000 </r>
       <r>   -31.9499     0.0000     2.0000 </r>
       <r>   -31.6344     0.0000     2.0000 </r>
       <r>   -31.3188     0.0000     2.0000 </r>
       <r>   -31.0033     0.0000     2.0000 </r>
       <r>   -30.6877     0.0000     2.0000 </r>
       <r>   -30.3722     0.0000     2.0000 </r>
       <r>   -30.0566     0.0000     2.0000 </r>
       <r>   -29.7411     0.0000     2.0000 </r>
       <r>   -29.4255     0.0000     2.0000 </r>
       <r>   -29.1100     0.0000     2.0000 </r>
       <r>   -28.7944     0.0000     2.0000 </r>
       <r>   -28.4789     0.0000     2.0000 </r>
       <r>   -28.1633     0.0000     2.0000 </r>
       <r>   -27.8478     0.0000     2.0000 </r>
       <r>   -27.5322     0.0000     2.0000 </r>
       <r>   -27.2167     0.0000     2.0000 </r>
       <r>   -26.9011     0.0000     2.0000 </r>
       <r>   -26.5856     0.0000     2.0000 </r>
       <r>   -26.2700     0.0000     2.0000 </r>
       <r>   -25.9545     0.0000     2.0000 </r>
       <r>   -25.6389     0.0000     2.0000 </r>
       <r>   -25.3234     0.0000     2.0000 </r>
       <r>   -25.0078     0.0000     2.0000 </r>
       <r>   -24.6923     0.0000     2.0000 </r>
       <r>   -24.3767     0.0000     2.0000 </r>
       <r>   -24.0612     0.0000     2.0000 </r>
       <r>   -23.7456     0.0000     2.0000 </r>
       <r>   -23.4301     0.0000     2.0000 </r>
       <r>   -23.1145     0.0000     2.0000 </r>
       <r>   -22.7990     0.0000     2.0000 </r>
       <r>   -22.4834     0.1704     2.0674 </r>
       <r>   -22.1679     0.9104     2.7270 </r>
       <r>   -21.8523     0.3981     4.0000 </r>
       <r>   -21.5368     0.0000     4.0000 </r>
       <r>   -21.2212     0.0000     4.0000 </r>
       <r>   -20.9057     0.0000     4.0000 </r>
       <r>   -20.5901     0.0000     4.0000 </r>
       <r>   -20.2746     0.0000     4.0000 </r>
       <r>   -19.9590     0.0000     4.0000 </r>
       <r>   -19.6435     0.0000     4.0000 </r>
       <r>   -19.3279     0.0000     4.0000 </r>
       <r>   -19.0124     0.0000     4.0000 </r>
       <r>   -18.6968     0.0000     4.0000 </r>
       <r>   -18.3813     0.0000     4.0000 </r>
       <r>   -18.0657     0.0000     4.0000 </r>
       <r>   -17.7502     0.0000     4.0000 </r>
       <r>   -17.4346     0.0000     4.0000 </r>
       <r>   -17.1191     0.0000     4.0000 </r>
       <r>   -16.8035     0.0000     4.0000 </r>
       <r>   -16.4880     0.0000     4.0000 </r>
       <r>   -16.1724     0.0000     4.0000 </r>
       <r>   -15.8569     0.0000     4.0000 </r>
       <r>   -15.5413     0.0000     4.0000 </r>
       <r>   -15.2258     0.0000     4.0000 </r>
       <r>   -14.9102     0.0000     4.0000 </r>
       <r>   -14.5947     0.0000     4.0000 </r>
       <r>   -14.2791     0.0000     4.0000 </r>
       <r>   -13.9636     0.0000     4.0000 </r>
       <r>   -13.6480     0.0000     4.0000 </r>
       <r>   -13.3325     0.0000     4.0000 </r>
       <r>   -13.0169     0.0000     4.0000 </r>
       <r>   -12.7014     0.0000     4.0000 </r>
       <r>   -12.3858     0.0000     4.0000 </r>
       <r>   -12.0703     0.0000     4.0000 </r>
       <r>   -11.7547     0.0000     4.0000 </r>
       <r>   -11.4392     0.0000     4.0000 </r>
       <r>   -11.1236     0.0000     4.0000 </r>
       <r>   -10.8081     0.0000     4.0000 </r>
       <r>   -10.4925     0.0000     4.0000 </r>
       <r>   -10.1770     0.0000     4.0000 </r>
       <r>    -9.8614     0.0000     4.0000 </r>
       <r>    -9.5459     0.0000     4.0000 </r>
       <r>    -9.2303     0.0000     4.0000 </r>
       <r>    -8.9148     0.0000     4.0000 </r>
       <r>    -8.5992     0.0000     4.0000 </r>
       <r>    -8.2837     0.0000     4.0000 </r>
       <r>    -7.9681     0.0000     4.0000 </r>
       <r>    -7.6526     0.0000     4.0000 </r>
       <r>    -7.3370     0.0000     4.0000 </r>
       <r>    -7.0215     0.0000     4.0000 </r>
       <r>    -6.7059     0.0000     4.0000 </r>
       <r>    -6.3904     0.0000     4.0000 </r>
       <r>    -6.0748     0.0000     4.0000 </r>
       <r>    -5.7593     0.0000     4.0000 </r>
       <r>    -5.4437     0.0000     4.0000 </r>
       <r>    -5.1282     0.0000     4.0000 </r>
       <r>    -4.8126     0.0000     4.0000 </r>
       <r>    -4.4971     0.0519     4.0164 </r>
       <r>    -4.1815     0.0077     4.1062 </r>
       <r>    -3.8660     0.6543     4.5524 </r>
       <r>    -3.5504     0.4157     5.2928 </r>
       <r>    -3.2349     0.5282     5.7707 </r>
       <r>    -2.9193     0.1731     6.1793 </r>
       <r>    -2.6038     0.4276     6.6911 </r>
       <r>    -2.2882     0.7184     7.3255 </r>
       <r>    -1.9727     0.7988     8.4177 </r>
       <r>    -1.6571     0.6920     9.5038 </r>
       <r>    -1.3416     0.0000    10.0000 </r>
       <r>    -1.0260     0.0000    10.0000 </r>
       <r>    -0.7105     0.0000    10.0000 </r>
       <r>    -0.3949     0.0000    10.0000 </r>
       <r>    -0.0794     0.0000    10.0000 </r>
       <r>     0.2362     0.0000    10.0000 </r>
       <r>     0.5517     0.0000    10.0000 </r>
       <r>     0.8673     0.0000    10.0000 </r>
       <r>     1.1828     0.0000    10.0000 </r>
       <r>     1.4984     0.0000    10.0000 </r>
       <r>     1.8139     0.0000    10.0000 </r>
       <r>     2.1295     0.0000    10.0000 </r>
       <r>     2.4450     0.0000    10.0000 </r>
       <r>     2.7606     0.0000    10.0000 </r>
       <r>     3.0761     0.0000    10.0000 </r>
       <r>     3.3917     0.0000    10.0000 </r>
       <r>     3.7072     0.0000    10.0000 </r>
       <r>     4.0228     0.0000    10.0000 </r>
       <r>     4.3383     0.0000    10.0000 </r>
       <r>     4.6539     0.0000    10.0000 </r>
       <r>     4.9694     0.0000    10.0000 </r>
       <r>     5.2850     0.0000    10.0000 </r>
       <r>     5.6005     0.0000    10.0000 </r>
       <r>     5.9161     0.0000    10.0000 </r>
       <r>     6.2316     0.0000    10.0000 </r>
       <r>     6.5472     0.0000    10.0000 </r>
       <r>     6.8627     0.0000    10.0000 </r>
       <r>     7.1783     0.0000    10.0000 </r>
       <r>     7.4938     0.0000    10.0000 </r>
       <r>     7.8094     0.0000    10.0000 </r>
       <r>     8.1249     0.0000    10.0000 </r>
       <r>     8.4405     0.0000    10.0000 </r>
       <r>     8.7560     0.0000    10.0000 </r>
       <r>     9.0716     0.0000    10.0000 </r>
       <r>     9.3871     0.0231    10.0082 </r>
       <r>     9.7027     0.0000    10.0246 </r>
       <r>    10.0182     0.0000    10.0537 </r>
       <r>    10.3338     0.0923    10.1320 </r>
       <r>    10.6493     0.1454    10.2070 </r>
       <r>    10.9649     0.2077    10.3832 </r>
       <r>    11.2804     0.0692    10.4980 </r>
       <r>    11.5960     0.1389    10.6729 </r>
       <r>    11.9115     0.1385    10.8366 </r>
       <r>    12.2271     0.0349    10.9241 </r>
       <r>    12.5426     0.0915    11.1058 </r>
       <r>    12.8582     0.0000    11.1916 </r>
       <r>    13.1737     0.3198    11.3909 </r>
       <r>    13.4893     0.0000    11.4866 </r>
       <r>    13.8048     0.0446    11.5880 </r>
       <r>    14.1204     0.0000    11.6450 </r>
       <r>    14.4359     0.0765    11.8002 </r>
       <r>    14.7515     0.0679    11.8740 </r>
       <r>    15.0670     0.2127    12.0234 </r>
       <r>    15.3826     0.0693    12.2185 </r>
       <r>    15.6981     0.1205    12.5187 </r>
       <r>    16.0137     0.3715    12.8382 </r>
       <r>    16.3292     0.3611    13.1463 </r>
       <r>    16.6448     0.1385    13.3163 </r>
       <r>    16.9603     0.3537    13.4990 </r>
       <r>    17.2759     0.0000    13.6641 </r>
       <r>    17.5914     0.0370    13.6758 </r>
       <r>    17.9070     0.0692    13.7642 </r>
       <r>    18.2225     0.1493    13.9533 </r>
       <r>    18.5381     0.1357    14.0164 </r>
       <r>    18.8536     0.2219    14.2621 </r>
       <r>    19.1692     0.2886    14.4142 </r>
       <r>    19.4847     0.1505    14.7567 </r>
       <r>    19.8003     0.2974    15.4566 </r>
       <r>    20.1158     0.5593    16.2384 </r>
       <r>    20.4314     0.3253    16.8819 </r>
       <r>    20.7469     0.3058    17.3491 </r>
       <r>    21.0625     0.1731    17.6131 </r>
       <r>    21.3780     0.1729    17.7551 </r>
       <r>    21.6936     0.0000    17.9008 </r>
       <r>    22.0091     0.0346    17.9772 </r>
       <r>    22.3247     0.0949    18.0563 </r>
       <r>    22.6403     0.0692    18.1684 </r>
       <r>    22.9558     0.0805    18.2648 </r>
       <r>    23.2714     0.1385    18.3596 </r>
       <r>    23.5869     0.0001    18.3596 </r>
       <r>    23.9025     0.2581    18.5102 </r>
       <r>    24.2180     0.0001    18.5544 </r>
       <r>    24.5336     0.0000    18.6445 </r>
       <r>    24.8491     0.1402    18.7543 </r>
       <r>    25.1647     0.0084    18.7892 </r>
       <r>    25.4802     0.0000    18.8766 </r>
       <r>    25.7958     0.1395    19.0226 </r>
       <r>    26.1113     0.1624    19.1391 </r>
       <r>    26.4269     0.0000    19.2262 </r>
       <r>    26.7424     0.0692    19.3063 </r>
       <r>    27.0580     0.0631    19.3991 </r>
       <r>    27.3735     0.0692    19.5102 </r>
       <r>    27.6891     0.1729    19.7214 </r>
       <r>    28.0046     0.0775    19.7969 </r>
       <r>    28.3202     0.0000    19.9472 </r>
       <r>    28.6357     0.0480    19.9951 </r>
       <r>    28.9513     0.1558    20.1620 </r>
       <r>    29.2668     0.1385    20.3077 </r>
       <r>    29.5824     0.0346    20.4934 </r>
       <r>    29.8979     0.2906    20.6507 </r>
       <r>    30.2135     0.1734    20.7775 </r>
       <r>    30.5290     0.1154    20.8539 </r>
       <r>    30.8446     0.5711    21.1870 </r>
       <r>    31.1601     0.2751    21.3776 </r>
       <r>    31.4757     0.0692    21.6259 </r>
       <r>    31.7912     0.0061    21.7625 </r>
       <r>    32.1068     0.1383    21.9572 </r>
       <r>    32.4223     0.1731    22.1648 </r>
       <r>    32.7379     0.0692    22.2303 </r>
       <r>    33.0534     0.0003    22.3397 </r>
       <r>    33.3690     0.0542    22.5205 </r>
       <r>    33.6845     0.1385    22.6345 </r>
       <r>    34.0001     0.1379    22.6999 </r>
       <r>    34.3156     0.1394    22.8751 </r>
       <r>    34.6312     0.1534    23.0270 </r>
       <r>    34.9467     0.0000    23.2025 </r>
       <r>    35.2623     0.0692    23.2899 </r>
       <r>    35.5778     0.0715    23.3453 </r>
       <r>    35.8934     0.3386    23.5661 </r>
       <r>    36.2089     0.1385    23.7105 </r>
       <r>    36.5245     0.0045    23.7993 </r>
       <r>    36.8400     0.0000    23.9071 </r>
       <r>    37.1556     0.0000    23.9181 </r>
       <r>    37.4711     0.0000    23.9181 </r>
       <r>    37.7867     0.0000    23.9636 </r>
       <r>    38.1022     0.0558    23.9812 </r>
       <r>    38.4178     0.0000    23.9836 </r>
       <r>    38.7333     0.0000    23.9836 </r>
       <r>    39.0489     0.0000    23.9945 </r>
       <r>    39.3644     0.0000    23.9945 </r>
       <r>    39.6800     0.0000    23.9945 </r>
       <r>    39.9955     0.0000    23.9945 </r>
       <r>    40.3111     0.0000    23.9945 </r>
       <r>    40.6266     0.0000    23.9945 </r>
       <r>    40.9422     0.0000    23.9945 </r>
       <r>    41.2577     0.0000    23.9945 </r>
       <r>    41.5733     0.0000    23.9945 </r>
       <r>    41.8888     0.0000    23.9945 </r>
       <r>    42.2044     0.0000    23.9945 </r>
       <r>    42.5199     0.0001    23.9946 </r>
       <r>    42.8355     0.0000    24.0000 </r>
       <r>    43.1510     0.0000    24.0000 </r>
       <r>    43.4666     0.0000    24.0000 </r>
       <r>    43.7821     0.0000    24.0000 </r>
       <r>    44.0977     0.0000    24.0000 </r>
       <r>    44.4132     0.0000    24.0000 </r>
       <r>    44.7288     0.0000    24.0000 </r>
       <r>    45.0443     0.0000    24.0000 </r>
       <r>    45.3599     0.0000    24.0000 </r>
       <r>    45.6754     0.0000    24.0000 </r>
       <r>    45.9910     0.0000    24.0000 </r>
       <r>    46.3065     0.0000    24.0000 </r>
       <r>    46.6221     0.0000    24.0000 </r>
       <r>    46.9376     0.0000    24.0000 </r>
      </set>
     </set>
    </array>
   </total>
  </dos>
 </calculation>
 <structure name="finalpos" >
  <crystal>
   <varray name="basis" >
    <v>      -0.00015237       1.99077658       1.99077669 </v>
    <v>       1.99077658      -0.00015236       1.99077668 </v>
    <v>       1.99077664       1.99077663      -0.00015242 </v>
   </varray>
   <i name="volume">     15.78147017 </i>
   <varray name="rec_basis" >
    <v>      -0.25112943       0.25114866       0.25114864 </v>
    <v>       0.25114866      -0.25112944       0.25114864 </v>
    <v>       0.25114865       0.25114865      -0.25112941 </v>
   </varray>
  </crystal>
  <varray name="positions" >
   <v>       0.00000001       0.00000002       0.99999998 </v>
   <v>       0.49999999       0.49999998       0.50000002 </v>
  </varray>
 </structure>
</modeling>
