  12  12   1   0
  0.1050332E+02  0.2916331E-09  0.4580966E-09  0.9434393E-09  0.5000000E-15
  1.000000000000000E-004
  CAR 
 unknown system                          
     10.34402079    -46.93205093  301      5.61874487      1.00000000
    -46.932  0.0000E+00  0.0000E+00
    -46.741  0.0000E+00  0.0000E+00
    -46.550  0.0000E+00  0.0000E+00
    -46.359  0.0000E+00  0.0000E+00
    -46.168  0.0000E+00  0.0000E+00
    -45.977  0.0000E+00  0.0000E+00
    -45.787  0.0000E+00  0.0000E+00
    -45.596  0.0000E+00  0.0000E+00
    -45.405  0.0000E+00  0.0000E+00
    -45.214  0.0000E+00  0.0000E+00
    -45.023  0.0000E+00  0.0000E+00
    -44.832  0.0000E+00  0.0000E+00
    -44.641  0.0000E+00  0.0000E+00
    -44.450  0.0000E+00  0.0000E+00
    -44.259  0.2106E+00  0.4020E-01
    -44.068  0.0000E+00  0.8040E-01
    -43.877  0.0000E+00  0.8040E-01
    -43.686  0.0000E+00  0.8040E-01
    -43.495  0.0000E+00  0.1206E+00
    -43.305  0.0000E+00  0.1206E+00
    -43.114  0.0000E+00  0.1206E+00
    -42.923  0.0000E+00  0.1206E+00
    -42.732  0.0000E+00  0.1206E+00
    -42.541  0.0000E+00  0.1206E+00
    -42.350  0.0000E+00  0.1206E+00
    -42.159  0.0000E+00  0.1206E+00
    -41.968  0.0000E+00  0.1206E+00
    -41.777  0.0000E+00  0.1206E+00
    -41.586  0.0000E+00  0.1206E+00
    -41.395  0.0000E+00  0.1206E+00
    -41.204  0.0000E+00  0.1206E+00
    -41.014  0.0000E+00  0.1206E+00
    -40.823  0.0000E+00  0.1206E+00
    -40.632  0.0000E+00  0.1206E+00
    -40.441  0.0000E+00  0.1206E+00
    -40.250  0.0000E+00  0.1206E+00
    -40.059  0.0000E+00  0.1206E+00
    -39.868  0.0000E+00  0.1206E+00
    -39.677  0.0000E+00  0.1206E+00
    -39.486  0.0000E+00  0.1206E+00
    -39.295  0.0000E+00  0.1206E+00
    -39.104  0.0000E+00  0.1206E+00
    -38.913  0.0000E+00  0.1206E+00
    -38.722  0.0000E+00  0.1206E+00
    -38.532  0.0000E+00  0.1206E+00
    -38.341  0.0000E+00  0.1206E+00
    -38.150  0.0000E+00  0.1206E+00
    -37.959  0.0000E+00  0.1206E+00
    -37.768  0.0000E+00  0.1206E+00
    -37.577  0.0000E+00  0.1206E+00
    -37.386  0.0000E+00  0.1206E+00
    -37.195  0.0000E+00  0.1206E+00
    -37.004  0.0000E+00  0.1206E+00
    -36.813  0.0000E+00  0.1206E+00
    -36.622  0.0000E+00  0.1206E+00
    -36.431  0.0000E+00  0.1206E+00
    -36.241  0.0000E+00  0.1206E+00
    -36.050  0.0000E+00  0.1206E+00
    -35.859  0.0000E+00  0.1206E+00
    -35.668  0.0000E+00  0.1206E+00
    -35.477  0.0000E+00  0.1206E+00
    -35.286  0.0000E+00  0.1206E+00
    -35.095  0.0000E+00  0.1206E+00
    -34.904  0.0000E+00  0.1206E+00
    -34.713  0.0000E+00  0.1206E+00
    -34.522  0.0000E+00  0.1206E+00
    -34.331  0.0000E+00  0.1206E+00
    -34.140  0.0000E+00  0.1206E+00
    -33.949  0.0000E+00  0.1206E+00
    -33.759  0.0000E+00  0.1206E+00
    -33.568  0.0000E+00  0.1206E+00
    -33.377  0.0000E+00  0.1206E+00
    -33.186  0.0000E+00  0.1206E+00
    -32.995  0.0000E+00  0.1206E+00
    -32.804  0.0000E+00  0.1206E+00
    -32.613  0.0000E+00  0.1206E+00
    -32.422  0.0000E+00  0.1206E+00
    -32.231  0.0000E+00  0.1206E+00
    -32.040  0.0000E+00  0.1206E+00
    -31.849  0.0000E+00  0.1206E+00
    -31.658  0.0000E+00  0.1206E+00
    -31.468  0.0000E+00  0.1206E+00
    -31.277  0.0000E+00  0.1206E+00
    -31.086  0.0000E+00  0.1206E+00
    -30.895  0.0000E+00  0.1206E+00
    -30.704  0.0000E+00  0.1206E+00
    -30.513  0.0000E+00  0.1206E+00
    -30.322  0.0000E+00  0.1206E+00
    -30.131  0.0000E+00  0.1206E+00
    -29.940  0.0000E+00  0.1206E+00
    -29.749  0.0000E+00  0.1206E+00
    -29.558  0.0000E+00  0.1206E+00
    -29.367  0.0000E+00  0.1206E+00
    -29.176  0.0000E+00  0.1206E+00
    -28.986  0.0000E+00  0.1206E+00
    -28.795  0.0000E+00  0.1206E+00
    -28.604  0.0000E+00  0.1206E+00
    -28.413  0.0000E+00  0.1206E+00
    -28.222  0.0000E+00  0.1206E+00
    -28.031  0.0000E+00  0.1206E+00
    -27.840  0.0000E+00  0.1206E+00
    -27.649  0.0000E+00  0.1206E+00
    -27.458  0.0000E+00  0.1206E+00
    -27.267  0.0000E+00  0.1206E+00
    -27.076  0.0000E+00  0.1206E+00
    -26.885  0.0000E+00  0.1206E+00
    -26.695  0.0000E+00  0.1206E+00
    -26.504  0.0000E+00  0.1206E+00
    -26.313  0.0000E+00  0.1206E+00
    -26.122  0.0000E+00  0.1206E+00
    -25.931  0.0000E+00  0.1206E+00
    -25.740  0.0000E+00  0.1206E+00
    -25.549  0.0000E+00  0.1206E+00
    -25.358  0.0000E+00  0.1206E+00
    -25.167  0.0000E+00  0.1206E+00
    -24.976  0.0000E+00  0.1206E+00
    -24.785  0.0000E+00  0.1206E+00
    -24.594  0.0000E+00  0.1206E+00
    -24.403  0.0000E+00  0.1206E+00
    -24.213  0.0000E+00  0.1206E+00
    -24.022  0.0000E+00  0.1206E+00
    -23.831  0.0000E+00  0.1206E+00
    -23.640  0.0000E+00  0.1206E+00
    -23.449  0.0000E+00  0.1206E+00
    -23.258  0.0000E+00  0.1206E+00
    -23.067  0.0000E+00  0.1206E+00
    -22.876  0.0000E+00  0.1206E+00
    -22.685  0.0000E+00  0.1206E+00
    -22.494  0.0000E+00  0.1206E+00
    -22.303  0.0000E+00  0.1206E+00
    -22.112  0.0000E+00  0.1206E+00
    -21.921  0.0000E+00  0.1206E+00
    -21.731  0.0000E+00  0.1206E+00
    -21.540  0.0000E+00  0.1206E+00
    -21.349  0.0000E+00  0.1206E+00
    -21.158  0.0000E+00  0.1206E+00
    -20.967  0.0000E+00  0.1206E+00
    -20.776  0.0000E+00  0.1206E+00
    -20.585  0.0000E+00  0.1206E+00
    -20.394  0.0000E+00  0.1206E+00
    -20.203  0.0000E+00  0.1206E+00
    -20.012  0.0000E+00  0.1206E+00
    -19.821  0.0000E+00  0.1206E+00
    -19.630  0.0000E+00  0.1206E+00
    -19.440  0.0000E+00  0.1206E+00
    -19.249  0.0000E+00  0.1206E+00
    -19.058  0.0000E+00  0.1206E+00
    -18.867  0.0000E+00  0.1206E+00
    -18.676  0.0000E+00  0.1206E+00
    -18.485  0.0000E+00  0.1206E+00
    -18.294  0.0000E+00  0.1206E+00
    -18.103  0.0000E+00  0.1206E+00
    -17.912  0.0000E+00  0.1206E+00
    -17.721  0.0000E+00  0.1206E+00
    -17.530  0.0000E+00  0.1206E+00
    -17.339  0.0000E+00  0.1206E+00
    -17.148  0.0000E+00  0.1206E+00
    -16.958  0.0000E+00  0.1206E+00
    -16.767  0.0000E+00  0.1206E+00
    -16.576  0.0000E+00  0.1206E+00
    -16.385  0.0000E+00  0.1206E+00
    -16.194  0.0000E+00  0.1206E+00
    -16.003  0.0000E+00  0.1206E+00
    -15.812  0.5264E-01  0.1307E+00
    -15.621  0.0000E+00  0.1307E+00
    -15.430  0.0000E+00  0.1407E+00
    -15.239  0.5112E-01  0.1505E+00
    -15.048  0.0000E+00  0.1508E+00
    -14.857  0.4248E-06  0.1508E+00
    -14.667  0.0000E+00  0.1608E+00
    -14.476  0.0000E+00  0.1608E+00
    -14.285  0.0000E+00  0.1608E+00
    -14.094  0.0000E+00  0.1608E+00
    -13.903  0.0000E+00  0.1608E+00
    -13.712  0.1042E+00  0.2008E+00
    -13.521  0.0000E+00  0.2010E+00
    -13.330  0.0000E+00  0.2010E+00
    -13.139  0.0000E+00  0.2010E+00
    -12.948  0.0000E+00  0.2010E+00
    -12.757  0.0000E+00  0.2010E+00
    -12.566  0.0000E+00  0.2010E+00
    -12.375  0.0000E+00  0.2010E+00
    -12.185  0.0000E+00  0.2010E+00
    -11.994  0.0000E+00  0.2010E+00
    -11.803  0.0000E+00  0.2010E+00
    -11.612  0.0000E+00  0.2010E+00
    -11.421  0.0000E+00  0.2010E+00
    -11.230  0.0000E+00  0.2010E+00
    -11.039  0.0000E+00  0.2010E+00
    -10.848  0.0000E+00  0.2010E+00
    -10.657  0.0000E+00  0.2010E+00
    -10.466  0.0000E+00  0.2010E+00
    -10.275  0.0000E+00  0.2010E+00
    -10.084  0.0000E+00  0.2010E+00
     -9.894  0.0000E+00  0.2010E+00
     -9.703  0.0000E+00  0.2010E+00
     -9.512  0.0000E+00  0.2010E+00
     -9.321  0.0000E+00  0.2010E+00
     -9.130  0.0000E+00  0.2010E+00
     -8.939  0.0000E+00  0.2010E+00
     -8.748  0.0000E+00  0.2010E+00
     -8.557  0.0000E+00  0.2010E+00
     -8.366  0.0000E+00  0.2010E+00
     -8.175  0.0000E+00  0.2010E+00
     -7.984  0.0000E+00  0.2010E+00
     -7.793  0.0000E+00  0.2010E+00
     -7.602  0.0000E+00  0.2010E+00
     -7.412  0.0000E+00  0.2010E+00
     -7.221  0.0000E+00  0.2010E+00
     -7.030  0.0000E+00  0.2010E+00
     -6.839  0.0000E+00  0.2010E+00
     -6.648  0.0000E+00  0.2010E+00
     -6.457  0.0000E+00  0.2010E+00
     -6.266  0.0000E+00  0.2010E+00
     -6.075  0.0000E+00  0.2010E+00
     -5.884  0.0000E+00  0.2010E+00
     -5.693  0.0000E+00  0.2010E+00
     -5.502  0.0000E+00  0.2010E+00
     -5.311  0.0000E+00  0.2010E+00
     -5.121  0.0000E+00  0.2010E+00
     -4.930  0.0000E+00  0.2010E+00
     -4.739  0.0000E+00  0.2010E+00
     -4.548  0.0000E+00  0.2010E+00
     -4.357  0.0000E+00  0.2010E+00
     -4.166  0.0000E+00  0.2010E+00
     -3.975  0.0000E+00  0.2010E+00
     -3.784  0.0000E+00  0.2010E+00
     -3.593  0.0000E+00  0.2010E+00
     -3.402  0.0000E+00  0.2010E+00
     -3.211  0.0000E+00  0.2010E+00
     -3.020  0.0000E+00  0.2010E+00
     -2.829  0.9201E-02  0.2028E+00
     -2.639  0.5262E-01  0.2211E+00
     -2.448  0.0000E+00  0.2211E+00
     -2.257  0.4650E-01  0.2400E+00
     -2.066  0.0000E+00  0.2412E+00
     -1.875  0.0000E+00  0.2412E+00
     -1.684  0.7274E-01  0.2551E+00
     -1.493  0.5264E-01  0.2814E+00
     -1.302  0.5264E-01  0.2915E+00
     -1.111  0.5264E-01  0.3015E+00
     -0.920  0.0000E+00  0.3116E+00
     -0.729  0.4151E-09  0.3116E+00
     -0.538  0.0000E+00  0.3216E+00
     -0.348  0.0000E+00  0.3216E+00
     -0.157  0.0000E+00  0.3216E+00
      0.034  0.0000E+00  0.3216E+00
      0.225  0.8233E-01  0.3373E+00
      0.416  0.5264E-01  0.3518E+00
      0.607  0.1179E-04  0.3618E+00
      0.798  0.5264E-01  0.3819E+00
      0.989  0.5264E-01  0.4020E+00
      1.180  0.0000E+00  0.4020E+00
      1.371  0.5264E-01  0.4121E+00
      1.562  0.0000E+00  0.4121E+00
      1.753  0.5264E-01  0.4221E+00
      1.944  0.0000E+00  0.4221E+00
      2.134  0.0000E+00  0.4322E+00
      2.325  0.0000E+00  0.4322E+00
      2.516  0.5264E-01  0.4422E+00
      2.707  0.0000E+00  0.4422E+00
      2.898  0.0000E+00  0.4422E+00
      3.089  0.0000E+00  0.4422E+00
      3.280  0.0000E+00  0.4422E+00
      3.471  0.0000E+00  0.4422E+00
      3.662  0.0000E+00  0.4422E+00
      3.853  0.4595E-04  0.4523E+00
      4.044  0.0000E+00  0.4623E+00
      4.235  0.1303E-09  0.4623E+00
      4.425  0.0000E+00  0.4824E+00
      4.616  0.0000E+00  0.4824E+00
      4.807  0.0000E+00  0.4824E+00
      4.998  0.0000E+00  0.4824E+00
      5.189  0.0000E+00  0.4824E+00
      5.380  0.5222E-01  0.4924E+00
      5.571  0.0000E+00  0.5025E+00
      5.762  0.1579E+00  0.5528E+00
      5.953  0.0000E+00  0.5628E+00
      6.144  0.0000E+00  0.5628E+00
      6.335  0.0000E+00  0.5628E+00
      6.526  0.0000E+00  0.5628E+00
      6.717  0.0000E+00  0.5628E+00
      6.907  0.0000E+00  0.5628E+00
      7.098  0.0000E+00  0.5628E+00
      7.289  0.2133E-09  0.5628E+00
      7.480  0.5060E-01  0.5825E+00
      7.671  0.3212E-01  0.5890E+00
      7.862  0.0000E+00  0.6030E+00
      8.053  0.0000E+00  0.6030E+00
      8.244  0.0000E+00  0.6030E+00
      8.435  0.0000E+00  0.6030E+00
      8.626  0.0000E+00  0.6030E+00
      8.817  0.0000E+00  0.6030E+00
      9.008  0.0000E+00  0.6030E+00
      9.198  0.0000E+00  0.6030E+00
      9.389  0.0000E+00  0.6030E+00
      9.580  0.0000E+00  0.6030E+00
      9.771  0.0000E+00  0.6030E+00
      9.962  0.0000E+00  0.6030E+00
     10.153  0.0000E+00  0.6030E+00
     10.344  0.0000E+00  0.6030E+00
     10.34402079    -46.93205093  301      5.61874487      1.00000000
    -46.932  0.0000E+00  0.0000E+00  0.0000E+00  0.0000E+00  0.0000E+00  0.0000E+00  0.0000E+00  0.0000E+00  0.0000E+00
    -46.741  0.0000E+00  0.0000E+00  0.0000E+00  0.0000E+00  0.0000E+00  0.0000E+00  0.0000E+00  0.0000E+00  0.0000E+00
    -46.550  0.0000E+00  0.0000E+00  0.0000E+00  0.0000E+00  0.0000E+00  0.0000E+00  0.0000E+00  0.0000E+00  0.0000E+00
    -46.359  0.0000E+00  0.0000E+00  0.0000E+00  0.0000E+00  0.0000E+00  0.0000E+00  0.0000E+00  0.0000E+00  0.0000E+00
    -46.168  0.0000E+00  0.0000E+00  0.0000E+00  0.0000E+00  0.0000E+00  0.0000E+00  0.0000E+00  0.0000E+00  0.0000E+00
    -45.977  0.0000E+00  0.0000E+00  0.0000E+00  0.0000E+00  0.0000E+00  0.0000E+00  0.0000E+00  0.0000E+00  0.0000E+00
    -45.787  0.0000E+00  0.0000E+00  0.0000E+00  0.0000E+00  0.0000E+00  0.0000E+00  0.0000E+00  0.0000E+00  0.0000E+00
    -45.596  0.0000E+00  0.0000E+00  0.0000E+00  0.0000E+00  0.0000E+00  0.0000E+00  0.0000E+00  0.0000E+00  0.0000E+00
    -45.405  0.0000E+00  0.0000E+00  0.0000E+00  0.0000E+00  0.0000E+00  0.0000E+00  0.0000E+00  0.0000E+00  0.0000E+00
    -45.214  0.0000E+00  0.0000E+00  0.0000E+00  0.0000E+00  0.0000E+00  0.0000E+00  0.0000E+00  0.0000E+00  0.0000E+00
    -45.023  0.0000E+00  0.0000E+00  0.0000E+00  0.0000E+00  0.0000E+00  0.0000E+00  0.0000E+00  0.0000E+00  0.0000E+00
    -44.832  0.0000E+00  0.0000E+00  0.0000E+00  0.0000E+00  0.0000E+00  0.0000E+00  0.0000E+00  0.0000E+00  0.0000E+00
    -44.641  0.0000E+00  0.0000E+00  0.0000E+00  0.0000E+00  0.0000E+00  0.0000E+00  0.0000E+00  0.0000E+00  0.0000E+00
    -44.450  0.0000E+00  0.0000E+00  0.0000E+00  0.0000E+00  0.0000E+00  0.0000E+00  0.0000E+00  0.0000E+00  0.0000E+00
    -44.259  0.7907E-10  0.1502E-06  0.3730E-05  0.1041E+02  0.1309E-03  0.3139E-09  0.5807E-10  0.7105E-03  0.2566E-09
    -44.068  0.0000E+00  0.0000E+00  0.0000E+00  0.0000E+00  0.0000E+00  0.0000E+00  0.0000E+00  0.0000E+00  0.0000E+00
    -43.877  0.0000E+00  0.0000E+00  0.0000E+00  0.0000E+00  0.0000E+00  0.0000E+00  0.0000E+00  0.0000E+00  0.0000E+00
    -43.686  0.0000E+00  0.0000E+00  0.0000E+00  0.0000E+00  0.0000E+00  0.0000E+00  0.0000E+00  0.0000E+00  0.0000E+00
    -43.495  0.0000E+00  0.0000E+00  0.0000E+00  0.0000E+00  0.0000E+00  0.0000E+00  0.0000E+00  0.0000E+00  0.0000E+00
    -43.305  0.0000E+00  0.0000E+00  0.0000E+00  0.0000E+00  0.0000E+00  0.0000E+00  0.0000E+00  0.0000E+00  0.0000E+00
    -43.114  0.0000E+00  0.0000E+00  0.0000E+00  0.0000E+00  0.0000E+00  0.0000E+00  0.0000E+00  0.0000E+00  0.0000E+00
    -42.923  0.0000E+00  0.0000E+00  0.0000E+00  0.0000E+00  0.0000E+00  0.0000E+00  0.0000E+00  0.0000E+00  0.0000E+00
    -42.732  0.0000E+00  0.0000E+00  0.0000E+00  0.0000E+00  0.0000E+00  0.0000E+00  0.0000E+00  0.0000E+00  0.0000E+00
    -42.541  0.0000E+00  0.0000E+00  0.0000E+00  0.0000E+00  0.0000E+00  0.0000E+00  0.0000E+00  0.0000E+00  0.0000E+00
    -42.350  0.0000E+00  0.0000E+00  0.0000E+00  0.0000E+00  0.0000E+00  0.0000E+00  0.0000E+00  0.0000E+00  0.0000E+00
    -42.159  0.0000E+00  0.0000E+00  0.0000E+00  0.0000E+00  0.0000E+00  0.0000E+00  0.0000E+00  0.0000E+00  0.0000E+00
    -41.968  0.0000E+00  0.0000E+00  0.0000E+00  0.0000E+00  0.0000E+00  0.0000E+00  0.0000E+00  0.0000E+00  0.0000E+00
    -41.777  0.0000E+00  0.0000E+00  0.0000E+00  0.0000E+00  0.0000E+00  0.0000E+00  0.0000E+00  0.0000E+00  0.0000E+00
    -41.586  0.0000E+00  0.0000E+00  0.0000E+00  0.0000E+00  0.0000E+00  0.0000E+00  0.0000E+00  0.0000E+00  0.0000E+00
    -41.395  0.0000E+00  0.0000E+00  0.0000E+00  0.0000E+00  0.0000E+00  0.0000E+00  0.0000E+00  0.0000E+00  0.0000E+00
    -41.204  0.0000E+00  0.0000E+00  0.0000E+00  0.0000E+00  0.0000E+00  0.0000E+00  0.0000E+00  0.0000E+00  0.0000E+00
    -41.014  0.0000E+00  0.0000E+00  0.0000E+00  0.0000E+00  0.0000E+00  0.0000E+00  0.0000E+00  0.0000E+00  0.0000E+00
    -40.823  0.0000E+00  0.0000E+00  0.0000E+00  0.0000E+00  0.0000E+00  0.0000E+00  0.0000E+00  0.0000E+00  0.0000E+00
    -40.632  0.0000E+00  0.0000E+00  0.0000E+00  0.0000E+00  0.0000E+00  0.0000E+00  0.0000E+00  0.0000E+00  0.0000E+00
    -40.441  0.0000E+00  0.0000E+00  0.0000E+00  0.0000E+00  0.0000E+00  0.0000E+00  0.0000E+00  0.0000E+00  0.0000E+00
    -40.250  0.0000E+00  0.0000E+00  0.0000E+00  0.0000E+00  0.0000E+00  0.0000E+00  0.0000E+00  0.0000E+00  0.0000E+00
    -40.059  0.0000E+00  0.0000E+00  0.0000E+00  0.0000E+00  0.0000E+00  0.0000E+00  0.0000E+00  0.0000E+00  0.0000E+00
    -39.868  0.0000E+00  0.0000E+00  0.0000E+00  0.0000E+00  0.0000E+00  0.0000E+00  0.0000E+00  0.0000E+00  0.0000E+00
    -39.677  0.0000E+00  0.0000E+00  0.0000E+00  0.0000E+00  0.0000E+00  0.0000E+00  0.0000E+00  0.0000E+00  0.0000E+00
    -39.486  0.0000E+00  0.0000E+00  0.0000E+00  0.0000E+00  0.0000E+00  0.0000E+00  0.0000E+00  0.0000E+00  0.0000E+00
    -39.295  0.0000E+00  0.0000E+00  0.0000E+00  0.0000E+00  0.0000E+00  0.0000E+00  0.0000E+00  0.0000E+00  0.0000E+00
    -39.104  0.0000E+00  0.0000E+00  0.0000E+00  0.0000E+00  0.0000E+00  0.0000E+00  0.0000E+00  0.0000E+00  0.0000E+00
    -38.913  0.0000E+00  0.0000E+00  0.0000E+00  0.0000E+00  0.0000E+00  0.0000E+00  0.0000E+00  0.0000E+00  0.0000E+00
    -38.722  0.0000E+00  0.0000E+00  0.0000E+00  0.0000E+00  0.0000E+00  0.0000E+00  0.0000E+00  0.0000E+00  0.0000E+00
    -38.532  0.0000E+00  0.0000E+00  0.0000E+00  0.0000E+00  0.0000E+00  0.0000E+00  0.0000E+00  0.0000E+00  0.0000E+00
    -38.341  0.0000E+00  0.0000E+00  0.0000E+00  0.0000E+00  0.0000E+00  0.0000E+00  0.0000E+00  0.0000E+00  0.0000E+00
    -38.150  0.0000E+00  0.0000E+00  0.0000E+00  0.0000E+00  0.0000E+00  0.0000E+00  0.0000E+00  0.0000E+00  0.0000E+00
    -37.959  0.0000E+00  0.0000E+00  0.0000E+00  0.0000E+00  0.0000E+00  0.0000E+00  0.0000E+00  0.0000E+00  0.0000E+00
    -37.768  0.0000E+00  0.0000E+00  0.0000E+00  0.0000E+00  0.0000E+00  0.0000E+00  0.0000E+00  0.0000E+00  0.0000E+00
    -37.577  0.0000E+00  0.0000E+00  0.0000E+00  0.0000E+00  0.0000E+00  0.0000E+00  0.0000E+00  0.0000E+00  0.0000E+00
    -37.386  0.0000E+00  0.0000E+00  0.0000E+00  0.0000E+00  0.0000E+00  0.0000E+00  0.0000E+00  0.0000E+00  0.0000E+00
    -37.195  0.0000E+00  0.0000E+00  0.0000E+00  0.0000E+00  0.0000E+00  0.0000E+00  0.0000E+00  0.0000E+00  0.0000E+00
    -37.004  0.0000E+00  0.0000E+00  0.0000E+00  0.0000E+00  0.0000E+00  0.0000E+00  0.0000E+00  0.0000E+00  0.0000E+00
    -36.813  0.0000E+00  0.0000E+00  0.0000E+00  0.0000E+00  0.0000E+00  0.0000E+00  0.0000E+00  0.0000E+00  0.0000E+00
    -36.622  0.0000E+00  0.0000E+00  0.0000E+00  0.0000E+00  0.0000E+00  0.0000E+00  0.0000E+00  0.0000E+00  0.0000E+00
    -36.431  0.0000E+00  0.0000E+00  0.0000E+00  0.0000E+00  0.0000E+00  0.0000E+00  0.0000E+00  0.0000E+00  0.0000E+00
    -36.241  0.0000E+00  0.0000E+00  0.0000E+00  0.0000E+00  0.0000E+00  0.0000E+00  0.0000E+00  0.0000E+00  0.0000E+00
    -36.050  0.0000E+00  0.0000E+00  0.0000E+00  0.0000E+00  0.0000E+00  0.0000E+00  0.0000E+00  0.0000E+00  0.0000E+00
    -35.859  0.0000E+00  0.0000E+00  0.0000E+00  0.0000E+00  0.0000E+00  0.0000E+00  0.0000E+00  0.0000E+00  0.0000E+00
    -35.668  0.0000E+00  0.0000E+00  0.0000E+00  0.0000E+00  0.0000E+00  0.0000E+00  0.0000E+00  0.0000E+00  0.0000E+00
    -35.477  0.0000E+00  0.0000E+00  0.0000E+00  0.0000E+00  0.0000E+00  0.0000E+00  0.0000E+00  0.0000E+00  0.0000E+00
    -35.286  0.0000E+00  0.0000E+00  0.0000E+00  0.0000E+00  0.0000E+00  0.0000E+00  0.0000E+00  0.0000E+00  0.0000E+00
    -35.095  0.0000E+00  0.0000E+00  0.0000E+00  0.0000E+00  0.0000E+00  0.0000E+00  0.0000E+00  0.0000E+00  0.0000E+00
    -34.904  0.0000E+00  0.0000E+00  0.0000E+00  0.0000E+00  0.0000E+00  0.0000E+00  0.0000E+00  0.0000E+00  0.0000E+00
    -34.713  0.0000E+00  0.0000E+00  0.0000E+00  0.0000E+00  0.0000E+00  0.0000E+00  0.0000E+00  0.0000E+00  0.0000E+00
    -34.522  0.0000E+00  0.0000E+00  0.0000E+00  0.0000E+00  0.0000E+00  0.0000E+00  0.0000E+00  0.0000E+00  0.0000E+00
    -34.331  0.0000E+00  0.0000E+00  0.0000E+00  0.0000E+00  0.0000E+00  0.0000E+00  0.0000E+00  0.0000E+00  0.0000E+00
    -34.140  0.0000E+00  0.0000E+00  0.0000E+00  0.0000E+00  0.0000E+00  0.0000E+00  0.0000E+00  0.0000E+00  0.0000E+00
    -33.949  0.0000E+00  0.0000E+00  0.0000E+00  0.0000E+00  0.0000E+00  0.0000E+00  0.0000E+00  0.0000E+00  0.0000E+00
    -33.759  0.0000E+00  0.0000E+00  0.0000E+00  0.0000E+00  0.0000E+00  0.0000E+00  0.0000E+00  0.0000E+00  0.0000E+00
    -33.568  0.0000E+00  0.0000E+00  0.0000E+00  0.0000E+00  0.0000E+00  0.0000E+00  0.0000E+00  0.0000E+00  0.0000E+00
    -33.377  0.0000E+00  0.0000E+00  0.0000E+00  0.0000E+00  0.0000E+00  0.0000E+00  0.0000E+00  0.0000E+00  0.0000E+00
    -33.186  0.0000E+00  0.0000E+00  0.0000E+00  0.0000E+00  0.0000E+00  0.0000E+00  0.0000E+00  0.0000E+00  0.0000E+00
    -32.995  0.0000E+00  0.0000E+00  0.0000E+00  0.0000E+00  0.0000E+00  0.0000E+00  0.0000E+00  0.0000E+00  0.0000E+00
    -32.804  0.0000E+00  0.0000E+00  0.0000E+00  0.0000E+00  0.0000E+00  0.0000E+00  0.0000E+00  0.0000E+00  0.0000E+00
    -32.613  0.0000E+00  0.0000E+00  0.0000E+00  0.0000E+00  0.0000E+00  0.0000E+00  0.0000E+00  0.0000E+00  0.0000E+00
    -32.422  0.0000E+00  0.0000E+00  0.0000E+00  0.0000E+00  0.0000E+00  0.0000E+00  0.0000E+00  0.0000E+00  0.0000E+00
    -32.231  0.0000E+00  0.0000E+00  0.0000E+00  0.0000E+00  0.0000E+00  0.0000E+00  0.0000E+00  0.0000E+00  0.0000E+00
    -32.040  0.0000E+00  0.0000E+00  0.0000E+00  0.0000E+00  0.0000E+00  0.0000E+00  0.0000E+00  0.0000E+00  0.0000E+00
    -31.849  0.0000E+00  0.0000E+00  0.0000E+00  0.0000E+00  0.0000E+00  0.0000E+00  0.0000E+00  0.0000E+00  0.0000E+00
    -31.658  0.0000E+00  0.0000E+00  0.0000E+00  0.0000E+00  0.0000E+00  0.0000E+00  0.0000E+00  0.0000E+00  0.0000E+00
    -31.468  0.0000E+00  0.0000E+00  0.0000E+00  0.0000E+00  0.0000E+00  0.0000E+00  0.0000E+00  0.0000E+00  0.0000E+00
    -31.277  0.0000E+00  0.0000E+00  0.0000E+00  0.0000E+00  0.0000E+00  0.0000E+00  0.0000E+00  0.0000E+00  0.0000E+00
    -31.086  0.0000E+00  0.0000E+00  0.0000E+00  0.0000E+00  0.0000E+00  0.0000E+00  0.0000E+00  0.0000E+00  0.0000E+00
    -30.895  0.0000E+00  0.0000E+00  0.0000E+00  0.0000E+00  0.0000E+00  0.0000E+00  0.0000E+00  0.0000E+00  0.0000E+00
    -30.704  0.0000E+00  0.0000E+00  0.0000E+00  0.0000E+00  0.0000E+00  0.0000E+00  0.0000E+00  0.0000E+00  0.0000E+00
    -30.513  0.0000E+00  0.0000E+00  0.0000E+00  0.0000E+00  0.0000E+00  0.0000E+00  0.0000E+00  0.0000E+00  0.0000E+00
    -30.322  0.0000E+00  0.0000E+00  0.0000E+00  0.0000E+00  0.0000E+00  0.0000E+00  0.0000E+00  0.0000E+00  0.0000E+00
    -30.131  0.0000E+00  0.0000E+00  0.0000E+00  0.0000E+00  0.0000E+00  0.0000E+00  0.0000E+00  0.0000E+00  0.0000E+00
    -29.940  0.0000E+00  0.0000E+00  0.0000E+00  0.0000E+00  0.0000E+00  0.0000E+00  0.0000E+00  0.0000E+00  0.0000E+00
    -29.749  0.0000E+00  0.0000E+00  0.0000E+00  0.0000E+00  0.0000E+00  0.0000E+00  0.0000E+00  0.0000E+00  0.0000E+00
    -29.558  0.0000E+00  0.0000E+00  0.0000E+00  0.0000E+00  0.0000E+00  0.0000E+00  0.0000E+00  0.0000E+00  0.0000E+00
    -29.367  0.0000E+00  0.0000E+00  0.0000E+00  0.0000E+00  0.0000E+00  0.0000E+00  0.0000E+00  0.0000E+00  0.0000E+00
    -29.176  0.0000E+00  0.0000E+00  0.0000E+00  0.0000E+00  0.0000E+00  0.0000E+00  0.0000E+00  0.0000E+00  0.0000E+00
    -28.986  0.0000E+00  0.0000E+00  0.0000E+00  0.0000E+00  0.0000E+00  0.0000E+00  0.0000E+00  0.0000E+00  0.0000E+00
    -28.795  0.0000E+00  0.0000E+00  0.0000E+00  0.0000E+00  0.0000E+00  0.0000E+00  0.0000E+00  0.0000E+00  0.0000E+00
    -28.604  0.0000E+00  0.0000E+00  0.0000E+00  0.0000E+00  0.0000E+00  0.0000E+00  0.0000E+00  0.0000E+00  0.0000E+00
    -28.413  0.0000E+00  0.0000E+00  0.0000E+00  0.0000E+00  0.0000E+00  0.0000E+00  0.0000E+00  0.0000E+00  0.0000E+00
    -28.222  0.0000E+00  0.0000E+00  0.0000E+00  0.0000E+00  0.0000E+00  0.0000E+00  0.0000E+00  0.0000E+00  0.0000E+00
    -28.031  0.0000E+00  0.0000E+00  0.0000E+00  0.0000E+00  0.0000E+00  0.0000E+00  0.0000E+00  0.0000E+00  0.0000E+00
    -27.840  0.0000E+00  0.0000E+00  0.0000E+00  0.0000E+00  0.0000E+00  0.0000E+00  0.0000E+00  0.0000E+00  0.0000E+00
    -27.649  0.0000E+00  0.0000E+00  0.0000E+00  0.0000E+00  0.0000E+00  0.0000E+00  0.0000E+00  0.0000E+00  0.0000E+00
    -27.458  0.0000E+00  0.0000E+00  0.0000E+00  0.0000E+00  0.0000E+00  0.0000E+00  0.0000E+00  0.0000E+00  0.0000E+00
    -27.267  0.0000E+00  0.0000E+00  0.0000E+00  0.0000E+00  0.0000E+00  0.0000E+00  0.0000E+00  0.0000E+00  0.0000E+00
    -27.076  0.0000E+00  0.0000E+00  0.0000E+00  0.0000E+00  0.0000E+00  0.0000E+00  0.0000E+00  0.0000E+00  0.0000E+00
    -26.885  0.0000E+00  0.0000E+00  0.0000E+00  0.0000E+00  0.0000E+00  0.0000E+00  0.0000E+00  0.0000E+00  0.0000E+00
    -26.695  0.0000E+00  0.0000E+00  0.0000E+00  0.0000E+00  0.0000E+00  0.0000E+00  0.0000E+00  0.0000E+00  0.0000E+00
    -26.504  0.0000E+00  0.0000E+00  0.0000E+00  0.0000E+00  0.0000E+00  0.0000E+00  0.0000E+00  0.0000E+00  0.0000E+00
    -26.313  0.0000E+00  0.0000E+00  0.0000E+00  0.0000E+00  0.0000E+00  0.0000E+00  0.0000E+00  0.0000E+00  0.0000E+00
    -26.122  0.0000E+00  0.0000E+00  0.0000E+00  0.0000E+00  0.0000E+00  0.0000E+00  0.0000E+00  0.0000E+00  0.0000E+00
    -25.931  0.0000E+00  0.0000E+00  0.0000E+00  0.0000E+00  0.0000E+00  0.0000E+00  0.0000E+00  0.0000E+00  0.0000E+00
    -25.740  0.0000E+00  0.0000E+00  0.0000E+00  0.0000E+00  0.0000E+00  0.0000E+00  0.0000E+00  0.0000E+00  0.0000E+00
    -25.549  0.0000E+00  0.0000E+00  0.0000E+00  0.0000E+00  0.0000E+00  0.0000E+00  0.0000E+00  0.0000E+00  0.0000E+00
    -25.358  0.0000E+00  0.0000E+00  0.0000E+00  0.0000E+00  0.0000E+00  0.0000E+00  0.0000E+00  0.0000E+00  0.0000E+00
    -25.167  0.0000E+00  0.0000E+00  0.0000E+00  0.0000E+00  0.0000E+00  0.0000E+00  0.0000E+00  0.0000E+00  0.0000E+00
    -24.976  0.0000E+00  0.0000E+00  0.0000E+00  0.0000E+00  0.0000E+00  0.0000E+00  0.0000E+00  0.0000E+00  0.0000E+00
    -24.785  0.0000E+00  0.0000E+00  0.0000E+00  0.0000E+00  0.0000E+00  0.0000E+00  0.0000E+00  0.0000E+00  0.0000E+00
    -24.594  0.0000E+00  0.0000E+00  0.0000E+00  0.0000E+00  0.0000E+00  0.0000E+00  0.0000E+00  0.0000E+00  0.0000E+00
    -24.403  0.0000E+00  0.0000E+00  0.0000E+00  0.0000E+00  0.0000E+00  0.0000E+00  0.0000E+00  0.0000E+00  0.0000E+00
    -24.213  0.0000E+00  0.0000E+00  0.0000E+00  0.0000E+00  0.0000E+00  0.0000E+00  0.0000E+00  0.0000E+00  0.0000E+00
    -24.022  0.0000E+00  0.0000E+00  0.0000E+00  0.0000E+00  0.0000E+00  0.0000E+00  0.0000E+00  0.0000E+00  0.0000E+00
    -23.831  0.0000E+00  0.0000E+00  0.0000E+00  0.0000E+00  0.0000E+00  0.0000E+00  0.0000E+00  0.0000E+00  0.0000E+00
    -23.640  0.0000E+00  0.0000E+00  0.0000E+00  0.0000E+00  0.0000E+00  0.0000E+00  0.0000E+00  0.0000E+00  0.0000E+00
    -23.449  0.0000E+00  0.0000E+00  0.0000E+00  0.0000E+00  0.0000E+00  0.0000E+00  0.0000E+00  0.0000E+00  0.0000E+00
    -23.258  0.0000E+00  0.0000E+00  0.0000E+00  0.0000E+00  0.0000E+00  0.0000E+00  0.0000E+00  0.0000E+00  0.0000E+00
    -23.067  0.0000E+00  0.0000E+00  0.0000E+00  0.0000E+00  0.0000E+00  0.0000E+00  0.0000E+00  0.0000E+00  0.0000E+00
    -22.876  0.0000E+00  0.0000E+00  0.0000E+00  0.0000E+00  0.0000E+00  0.0000E+00  0.0000E+00  0.0000E+00  0.0000E+00
    -22.685  0.0000E+00  0.0000E+00  0.0000E+00  0.0000E+00  0.0000E+00  0.0000E+00  0.0000E+00  0.0000E+00  0.0000E+00
    -22.494  0.0000E+00  0.0000E+00  0.0000E+00  0.0000E+00  0.0000E+00  0.0000E+00  0.0000E+00  0.0000E+00  0.0000E+00
    -22.303  0.0000E+00  0.0000E+00  0.0000E+00  0.0000E+00  0.0000E+00  0.0000E+00  0.0000E+00  0.0000E+00  0.0000E+00
    -22.112  0.0000E+00  0.0000E+00  0.0000E+00  0.0000E+00  0.0000E+00  0.0000E+00  0.0000E+00  0.0000E+00  0.0000E+00
    -21.921  0.0000E+00  0.0000E+00  0.0000E+00  0.0000E+00  0.0000E+00  0.0000E+00  0.0000E+00  0.0000E+00  0.0000E+00
    -21.731  0.0000E+00  0.0000E+00  0.0000E+00  0.0000E+00  0.0000E+00  0.0000E+00  0.0000E+00  0.0000E+00  0.0000E+00
    -21.540  0.0000E+00  0.0000E+00  0.0000E+00  0.0000E+00  0.0000E+00  0.0000E+00  0.0000E+00  0.0000E+00  0.0000E+00
    -21.349  0.0000E+00  0.0000E+00  0.0000E+00  0.0000E+00  0.0000E+00  0.0000E+00  0.0000E+00  0.0000E+00  0.0000E+00
    -21.158  0.0000E+00  0.0000E+00  0.0000E+00  0.0000E+00  0.0000E+00  0.0000E+00  0.0000E+00  0.0000E+00  0.0000E+00
    -20.967  0.0000E+00  0.0000E+00  0.0000E+00  0.0000E+00  0.0000E+00  0.0000E+00  0.0000E+00  0.0000E+00  0.0000E+00
    -20.776  0.0000E+00  0.0000E+00  0.0000E+00  0.0000E+00  0.0000E+00  0.0000E+00  0.0000E+00  0.0000E+00  0.0000E+00
    -20.585  0.0000E+00  0.0000E+00  0.0000E+00  0.0000E+00  0.0000E+00  0.0000E+00  0.0000E+00  0.0000E+00  0.0000E+00
    -20.394  0.0000E+00  0.0000E+00  0.0000E+00  0.0000E+00  0.0000E+00  0.0000E+00  0.0000E+00  0.0000E+00  0.0000E+00
    -20.203  0.0000E+00  0.0000E+00  0.0000E+00  0.0000E+00  0.0000E+00  0.0000E+00  0.0000E+00  0.0000E+00  0.0000E+00
    -20.012  0.0000E+00  0.0000E+00  0.0000E+00  0.0000E+00  0.0000E+00  0.0000E+00  0.0000E+00  0.0000E+00  0.0000E+00
    -19.821  0.0000E+00  0.0000E+00  0.0000E+00  0.0000E+00  0.0000E+00  0.0000E+00  0.0000E+00  0.0000E+00  0.0000E+00
    -19.630  0.0000E+00  0.0000E+00  0.0000E+00  0.0000E+00  0.0000E+00  0.0000E+00  0.0000E+00  0.0000E+00  0.0000E+00
    -19.440  0.0000E+00  0.0000E+00  0.0000E+00  0.0000E+00  0.0000E+00  0.0000E+00  0.0000E+00  0.0000E+00  0.0000E+00
    -19.249  0.0000E+00  0.0000E+00  0.0000E+00  0.0000E+00  0.0000E+00  0.0000E+00  0.0000E+00  0.0000E+00  0.0000E+00
    -19.058  0.0000E+00  0.0000E+00  0.0000E+00  0.0000E+00  0.0000E+00  0.0000E+00  0.0000E+00  0.0000E+00  0.0000E+00
    -18.867  0.0000E+00  0.0000E+00  0.0000E+00  0.0000E+00  0.0000E+00  0.0000E+00  0.0000E+00  0.0000E+00  0.0000E+00
    -18.676  0.0000E+00  0.0000E+00  0.0000E+00  0.0000E+00  0.0000E+00  0.0000E+00  0.0000E+00  0.0000E+00  0.0000E+00
    -18.485  0.0000E+00  0.0000E+00  0.0000E+00  0.0000E+00  0.0000E+00  0.0000E+00  0.0000E+00  0.0000E+00  0.0000E+00
    -18.294  0.0000E+00  0.0000E+00  0.0000E+00  0.0000E+00  0.0000E+00  0.0000E+00  0.0000E+00  0.0000E+00  0.0000E+00
    -18.103  0.0000E+00  0.0000E+00  0.0000E+00  0.0000E+00  0.0000E+00  0.0000E+00  0.0000E+00  0.0000E+00  0.0000E+00
    -17.912  0.0000E+00  0.0000E+00  0.0000E+00  0.0000E+00  0.0000E+00  0.0000E+00  0.0000E+00  0.0000E+00  0.0000E+00
    -17.721  0.0000E+00  0.0000E+00  0.0000E+00  0.0000E+00  0.0000E+00  0.0000E+00  0.0000E+00  0.0000E+00  0.0000E+00
    -17.530  0.0000E+00  0.0000E+00  0.0000E+00  0.0000E+00  0.0000E+00  0.0000E+00  0.0000E+00  0.0000E+00  0.0000E+00
    -17.339  0.0000E+00  0.0000E+00  0.0000E+00  0.0000E+00  0.0000E+00  0.0000E+00  0.0000E+00  0.0000E+00  0.0000E+00
    -17.148  0.0000E+00  0.0000E+00  0.0000E+00  0.0000E+00  0.0000E+00  0.0000E+00  0.0000E+00  0.0000E+00  0.0000E+00