       N       E                     dE             d eps       ncg     rms          rms(c)
DAV:   1     0.126055277723E+04    0.12606E+04   -0.48853E+04   120   0.167E+03
DAV:   2     0.753870424859E+02   -0.11852E+04   -0.11247E+04   124   0.531E+02
DAV:   3    -0.112649956085E+03   -0.18804E+03   -0.17907E+03   136   0.192E+02
DAV:   4    -0.121003567107E+03   -0.83536E+01   -0.81778E+01   144   0.421E+01
DAV:   5    -0.121239832993E+03   -0.23627E+00   -0.22513E+00   144   0.707E+00    0.583E+01
RMM:   6    -0.155476627630E+03   -0.34237E+02   -0.59353E+02   150   0.104E+02    0.103E+02
RMM:   7    -0.883296004664E+02    0.67147E+02   -0.18951E+02   131   0.606E+01    0.234E+01
RMM:   8    -0.133033670368E+03   -0.44704E+02   -0.56932E+01   144   0.314E+01    0.621E+01
RMM:   9    -0.958659991544E+02    0.37168E+02   -0.21295E+01   136   0.220E+01    0.356E+01
RMM:  10    -0.923466840589E+02    0.35193E+01   -0.68004E+00   139   0.112E+01    0.323E+01
RMM:  11    -0.898934049886E+02    0.24533E+01   -0.39671E+00   143   0.762E+00    0.318E+01
RMM:  12    -0.877841418670E+02    0.21093E+01   -0.22101E+00   138   0.598E+00    0.180E+01
RMM:  13    -0.872975982508E+02    0.48654E+00   -0.63137E-01   142   0.334E+00    0.125E+01
RMM:  14    -0.870736021727E+02    0.22400E+00   -0.11542E-01   149   0.150E+00    0.562E+00
RMM:  15    -0.872325331990E+02   -0.15893E+00   -0.14991E-01   133   0.160E+00    0.104E+01
RMM:  16    -0.871341320805E+02    0.98401E-01   -0.67285E-02   128   0.138E+00    0.864E+00
RMM:  17    -0.872488011065E+02   -0.11467E+00   -0.13805E-01   128   0.182E+00    0.114E+01
RMM:  18    -0.871068583773E+02    0.14194E+00   -0.51823E-02   138   0.101E+00    0.576E+00
RMM:  19    -0.870879819851E+02    0.18876E-01   -0.94510E-03   134   0.530E-01    0.338E+00
RMM:  20    -0.871055355528E+02   -0.17554E-01   -0.94954E-03   124   0.594E-01    0.184E+00
RMM:  21    -0.871275406302E+02   -0.22005E-01   -0.41160E-03   130   0.402E-01    0.157E+00
RMM:  22    -0.871380586605E+02   -0.10518E-01   -0.26359E-03   129   0.256E-01    0.367E+00
RMM:  23    -0.871280825513E+02    0.99761E-02   -0.35136E-03   126   0.337E-01    0.223E+00
RMM:  24    -0.871307119413E+02   -0.26294E-02   -0.10307E-03   129   0.168E-01    0.126E+00
RMM:  25    -0.871357697887E+02   -0.50578E-02   -0.13865E-03   122   0.246E-01    0.278E+00
RMM:  26    -0.871284410768E+02    0.73287E-02   -0.54319E-04   125   0.160E-01    0.191E+00
RMM:  27    -0.871293118558E+02   -0.87078E-03   -0.30456E-04   125   0.848E-02    0.354E-01
RMM:  28    -0.871338073765E+02   -0.44955E-02   -0.52348E-04   122   0.165E-01    0.799E-01
RMM:  29    -0.871335924086E+02    0.21497E-03   -0.20800E-04   116   0.940E-02    0.108E+00
RMM:  30    -0.871327729175E+02    0.81949E-03   -0.11350E-04   112   0.684E-02    0.432E-01
RMM:  31    -0.871333765734E+02   -0.60366E-03   -0.63042E-05    94   0.437E-02    0.114E-01
RMM:  32    -0.871336454632E+02   -0.26889E-03   -0.25435E-05    74   0.368E-02    0.140E-01
RMM:  33    -0.871336735720E+02   -0.28109E-04   -0.95399E-06    64   0.244E-02    0.182E-01
RMM:  34    -0.871336457193E+02    0.27853E-04   -0.66294E-06    64   0.181E-02    0.439E-02
RMM:  35    -0.871336644960E+02   -0.18777E-04   -0.33232E-06    64   0.128E-02    0.323E-02
RMM:  36    -0.871336643528E+02    0.14324E-06   -0.86167E-07    55   0.522E-03
   1 F= -.87133664E+02 E0= -.87128168E+02  d E =-.871337E+02
       N       E                     dE             d eps       ncg     rms          rms(c)
DAV:   1    -0.870723229486E+02    0.61342E-01   -0.60794E+02   120   0.115E+02    0.793E+00
RMM:   2    -0.899529704697E+02   -0.28806E+01   -0.30456E+01   134   0.243E+01    0.109E+01
RMM:   3    -0.892654740788E+02    0.68750E+00   -0.13892E+00   135   0.630E+00    0.127E+01
RMM:   4    -0.892570413576E+02    0.84327E-02   -0.27554E-01   135   0.245E+00    0.136E+01
RMM:   5    -0.893262195831E+02   -0.69178E-01   -0.37475E-01   127   0.272E+00    0.209E+01
RMM:   6    -0.888725393821E+02    0.45368E+00   -0.30413E-01   131   0.294E+00    0.667E+00
RMM:   7    -0.903499915662E+02   -0.14775E+01   -0.73651E-01   130   0.366E+00    0.218E+01
RMM:   8    -0.888327408180E+02    0.15173E+01   -0.49365E-01   131   0.352E+00    0.314E+00
RMM:   9    -0.889136605890E+02   -0.80920E-01   -0.79603E-02   140   0.117E+00    0.288E+00
RMM:  10    -0.889122132295E+02    0.14474E-02   -0.17381E-02   148   0.502E-01    0.194E+00
RMM:  11    -0.889105615470E+02    0.16517E-02   -0.40642E-03   132   0.338E-01    0.170E+00
RMM:  12    -0.889046263846E+02    0.59352E-02   -0.38654E-03   141   0.248E-01    0.110E+00
RMM:  13    -0.889025973630E+02    0.20290E-02   -0.22082E-03   141   0.188E-01    0.867E-01
RMM:  14    -0.889010084799E+02    0.15889E-02   -0.13129E-03   140   0.146E-01    0.521E-01
RMM:  15    -0.889005717249E+02    0.43675E-03   -0.77450E-04   140   0.111E-01    0.369E-01
RMM:  16    -0.889002968106E+02    0.27491E-03   -0.30243E-04   137   0.699E-02    0.180E-01
RMM:  17    -0.889002281403E+02    0.68670E-04   -0.18968E-04   125   0.577E-02    0.765E-02
RMM:  18    -0.889002245139E+02    0.36264E-05   -0.44688E-05    86   0.277E-02
   2 F= -.88900225E+02 E0= -.88900225E+02  d E =-.176656E+01
       N       E                     dE             d eps       ncg     rms          rms(c)
DAV:   1    -0.885835732862E+02    0.31665E+00   -0.20813E+02   120   0.675E+01    0.437E+00
RMM:   2    -0.893661566888E+02   -0.78258E+00   -0.80737E+00   132   0.124E+01    0.514E+00
RMM:   3    -0.892020203589E+02    0.16414E+00   -0.33951E-01   145   0.304E+00    0.510E+00
RMM:   4    -0.893214779184E+02   -0.11946E+00   -0.98885E-02   135   0.143E+00    0.975E+00
RMM:   5    -0.892695589759E+02    0.51919E-01   -0.14146E-01   131   0.179E+00    0.791E+00
RMM:   6    -0.892224163501E+02    0.47143E-01   -0.10892E-01   131   0.161E+00    0.773E+00
RMM:   7    -0.892140118319E+02    0.84045E-02   -0.11974E-01   128   0.172E+00    0.581E+00
RMM:   8    -0.891416155944E+02    0.72396E-01   -0.84493E-02   134   0.140E+00    0.704E-01
RMM:   9    -0.891470911397E+02   -0.54755E-02   -0.84568E-03   138   0.430E-01    0.295E-01
RMM:  10    -0.891467976367E+02    0.29350E-03   -0.12982E-03   135   0.145E-01    0.137E-01
RMM:  11    -0.891466745314E+02    0.12311E-03   -0.65840E-04   117   0.947E-02    0.808E-02
RMM:  12    -0.891466465217E+02    0.28010E-04   -0.76222E-05   121   0.395E-02    0.327E-02
RMM:  13    -0.891466451967E+02    0.13250E-05   -0.95518E-06    68   0.157E-02
   3 F= -.89146645E+02 E0= -.89146645E+02  d E =-.201298E+01
       N       E                     dE             d eps       ncg     rms          rms(c)
DAV:   1    -0.891411263419E+02    0.55202E-02   -0.10884E+01   128   0.155E+01    0.106E+00
RMM:   2    -0.891716047346E+02   -0.30478E-01   -0.32102E-01   142   0.249E+00    0.834E-01
RMM:   3    -0.891947694984E+02   -0.23165E-01   -0.18174E-02   139   0.685E-01    0.421E+00
RMM:   4    -0.891609582802E+02    0.33811E-01   -0.90569E-03   128   0.517E-01    0.859E-01
RMM:   5    -0.891788978971E+02   -0.17940E-01   -0.15080E-02   131   0.558E-01    0.257E+00
RMM:   6    -0.891685905471E+02    0.10307E-01   -0.68052E-03   130   0.411E-01    0.158E+00
RMM:   7    -0.891698756839E+02   -0.12851E-02   -0.60549E-03   127   0.411E-01    0.106E+00
RMM:   8    -0.891659939138E+02    0.38818E-02   -0.36265E-03   133   0.308E-01    0.695E-02
RMM:   9    -0.891662542567E+02   -0.26034E-03   -0.47161E-04   127   0.748E-02    0.427E-02
RMM:  10    -0.891662508960E+02    0.33607E-05   -0.48629E-05    90   0.277E-02
   4 F= -.89166251E+02 E0= -.89166251E+02  d E =-.203259E+01
       N       E                     dE             d eps       ncg     rms          rms(c)
DAV:   1    -0.884342434731E+02    0.73201E+00   -0.94881E+01   132   0.102E+02    0.338E+00
RMM:   2    -0.894229184906E+02   -0.98868E+00   -0.10285E+01   148   0.172E+01    0.200E+00
RMM:   3    -0.894398937779E+02   -0.16975E-01   -0.50394E-01   140   0.343E+00    0.693E+00
RMM:   4    -0.893395654694E+02    0.10033E+00   -0.59054E-02   135   0.119E+00    0.264E+00
RMM:   5    -0.893851740825E+02   -0.45609E-01   -0.55692E-02   130   0.109E+00    0.490E+00
RMM:   6    -0.893333082896E+02    0.51866E-01   -0.28354E-02   133   0.842E-01    0.157E+00
RMM:   7    -0.893524615381E+02   -0.19153E-01   -0.37953E-02   128   0.935E-01    0.186E+00
RMM:   8    -0.893396186986E+02    0.12843E-01   -0.20800E-02   133   0.700E-01    0.830E-01
RMM:   9    -0.893377990527E+02    0.18196E-02   -0.74351E-03   135   0.388E-01    0.147E-01
RMM:  10    -0.893376640281E+02    0.13502E-03   -0.45795E-04   145   0.974E-02    0.946E-02
RMM:  11    -0.893376029893E+02    0.61039E-04   -0.19634E-04   129   0.710E-02    0.259E-02
RMM:  12    -0.893375984652E+02    0.45241E-05   -0.25091E-05    79   0.257E-02
   5 F= -.89337598E+02 E0= -.89337598E+02  d E =-.171348E+00
       N       E                     dE             d eps       ncg     rms          rms(c)
DAV:   1    -0.893170319689E+02    0.20571E-01   -0.26689E+00   132   0.171E+01    0.535E-01
RMM:   2    -0.893437542311E+02   -0.26722E-01   -0.27849E-01   146   0.282E+00    0.346E-01
RMM:   3    -0.893442592657E+02   -0.50503E-03   -0.14098E-02   137   0.560E-01    0.119E+00
RMM:   4    -0.893414077656E+02    0.28515E-02   -0.16373E-03   137   0.199E-01    0.431E-01
RMM:   5    -0.893417406262E+02   -0.33286E-03   -0.12661E-03   129   0.179E-01    0.308E-01
RMM:   6    -0.893418792189E+02   -0.13859E-03   -0.77867E-04   133   0.133E-01    0.366E-01
RMM:   7    -0.893431496993E+02   -0.12705E-02   -0.16480E-03   130   0.186E-01    0.887E-01
RMM:   8    -0.893412094954E+02    0.19402E-02   -0.93635E-04   133   0.161E-01    0.123E-01
RMM:   9    -0.893414747306E+02   -0.26524E-03   -0.20194E-04   123   0.686E-02    0.302E-02
RMM:  10    -0.893414659242E+02    0.88065E-05   -0.93797E-06    67   0.186E-02
   6 F= -.89341466E+02 E0= -.89341466E+02  d E =-.175215E+00
       N       E                     dE             d eps       ncg     rms          rms(c)
DAV:   1    -0.891917742315E+02    0.14970E+00   -0.39510E+01   128   0.500E+01    0.176E+00
RMM:   2    -0.894317349439E+02   -0.23996E+00   -0.24658E+00   154   0.871E+00    0.115E+00
RMM:   3    -0.894961553084E+02   -0.64420E-01   -0.87341E-02   134   0.154E+00    0.658E+00
RMM:   4    -0.894006808776E+02    0.95474E-01   -0.25957E-02   130   0.875E-01    0.101E+00
RMM:   5    -0.894118959755E+02   -0.11215E-01   -0.12961E-02   129   0.588E-01    0.615E-01
RMM:   6    -0.894273732785E+02   -0.15477E-01   -0.20638E-02   130   0.648E-01    0.202E+00
RMM:   7    -0.894116181397E+02    0.15755E-01   -0.11672E-02   133   0.523E-01    0.104E+00
RMM:   8    -0.894104975794E+02    0.11206E-02   -0.25646E-03   134   0.244E-01    0.378E-01
RMM:   9    -0.894104217020E+02    0.75877E-04   -0.61295E-04   138   0.112E-01    0.603E-02
RMM:  10    -0.894104121575E+02    0.95446E-05   -0.13161E-04   127   0.451E-02    0.245E-02
RMM:  11    -0.894104061471E+02    0.60104E-05   -0.25573E-05    77   0.212E-02
   7 F= -.89410406E+02 E0= -.89410406E+02  d E =-.689402E-01
       N       E                     dE             d eps       ncg     rms          rms(c)
DAV:   1    -0.893841193297E+02    0.26293E-01   -0.58872E+00   128   0.193E+01    0.656E-01
RMM:   2    -0.894195500053E+02   -0.35431E-01   -0.36160E-01   155   0.335E+00    0.554E-01
RMM:   3    -0.894380116060E+02   -0.18462E-01   -0.14366E-02   136   0.611E-01    0.344E+00
RMM:   4    -0.894128480665E+02    0.25164E-01   -0.58846E-03   128   0.427E-01    0.410E-01
RMM:   5    -0.894187204173E+02   -0.58724E-02   -0.33242E-03   133   0.265E-01    0.110E+00
RMM:   6    -0.894160809329E+02    0.26395E-02   -0.21727E-03   130   0.224E-01    0.297E-01
RMM:   7    -0.894163524213E+02   -0.27149E-03   -0.18923E-03   125   0.187E-01    0.188E-01
RMM:   8    -0.894162583193E+02    0.94102E-04   -0.36365E-04   133   0.883E-02    0.148E-01
RMM:   9    -0.894161709038E+02    0.87416E-04   -0.98065E-05   116   0.479E-02    0.224E-02
RMM:  10    -0.894161712097E+02   -0.30597E-06   -0.17098E-05    69   0.182E-02
   8 F= -.89416171E+02 E0= -.89416171E+02  d E =-.747053E-01
       N       E                     dE             d eps       ncg     rms          rms(c)
DAV:   1    -0.893863861924E+02    0.29785E-01   -0.19978E+01   128   0.330E+01    0.126E+00
RMM:   2    -0.894908115608E+02   -0.10443E+00   -0.11154E+00   149   0.591E+00    0.101E+00
RMM:   3    -0.894849439744E+02    0.58676E-02   -0.45175E-02   145   0.111E+00    0.179E+00
RMM:   4    -0.894857509776E+02   -0.80700E-03   -0.11148E-02   130   0.490E-01    0.213E+00
RMM:   5    -0.895002478560E+02   -0.14497E-01   -0.14011E-02   131   0.543E-01    0.356E+00
RMM:   6    -0.894738301902E+02    0.26418E-01   -0.10362E-02   127   0.523E-01    0.626E-01
RMM:   7    -0.894787598906E+02   -0.49297E-02   -0.67974E-03   129   0.392E-01    0.616E-01
RMM:   8    -0.894771577649E+02    0.16021E-02   -0.19745E-03   138   0.202E-01    0.194E-01
RMM:   9    -0.894771014263E+02    0.56339E-04   -0.27377E-04   136   0.790E-02    0.569E-02
RMM:  10    -0.894770815880E+02    0.19838E-04   -0.55274E-05   105   0.312E-02    0.300E-02
RMM:  11    -0.894770774409E+02    0.41471E-05   -0.14449E-05    68   0.207E-02
   9 F= -.89477077E+02 E0= -.89477077E+02  d E =-.609062E-01
       N       E                     dE             d eps       ncg     rms          rms(c)
DAV:   1    -0.888425566007E+02    0.63452E+00   -0.18049E+02   128   0.990E+01    0.811E+00
RMM:   2    -0.901292213617E+02   -0.12867E+01   -0.12367E+01   150   0.189E+01    0.606E+00
RMM:   3    -0.899168982118E+02    0.21232E+00   -0.89485E-01   133   0.485E+00    0.790E+00
RMM:   4    -0.898927294461E+02    0.24169E-01   -0.33044E-01   136   0.259E+00    0.832E+00
RMM:   5    -0.897519764504E+02    0.14075E+00   -0.17110E-01   130   0.197E+00    0.547E+00
RMM:   6    -0.897484214293E+02    0.35550E-02   -0.36393E-02   132   0.947E-01    0.576E+00
RMM:   7    -0.898479089874E+02   -0.99488E-01   -0.98555E-02   134   0.144E+00    0.135E+01
RMM:   8    -0.896068096509E+02    0.24110E+00   -0.10548E-01   128   0.175E+00    0.136E+00
RMM:   9    -0.897060008671E+02   -0.99191E-01   -0.43810E-02   139   0.965E-01    0.496E+00
RMM:  10    -0.896826688014E+02    0.23332E-01   -0.88310E-03   134   0.557E-01    0.684E+00
RMM:  11    -0.896107025991E+02    0.71966E-01   -0.97788E-03   126   0.458E-01    0.114E+00
RMM:  12    -0.896942628746E+02   -0.83560E-01   -0.12057E-02   125   0.742E-01    0.114E+00
RMM:  13    -0.896936367286E+02    0.62615E-03   -0.19636E-03   135   0.278E-01    0.111E+00
RMM:  14    -0.896915515559E+02    0.20852E-02   -0.20422E-04   135   0.878E-02    0.101E+00
RMM:  15    -0.896905369010E+02    0.10147E-02   -0.37326E-04   133   0.807E-02    0.530E-01
RMM:  16    -0.896920935899E+02   -0.15567E-02   -0.17073E-04   118   0.757E-02    0.216E-01
RMM:  17    -0.896929322447E+02   -0.83865E-03   -0.62977E-05    94   0.597E-02    0.191E-01
RMM:  18    -0.896929980838E+02   -0.65839E-04   -0.15218E-05    66   0.263E-02    0.725E-02
RMM:  19    -0.896930763615E+02   -0.78278E-04   -0.15390E-05    66   0.271E-02    0.364E-02
RMM:  20    -0.896930874829E+02   -0.11121E-04   -0.41883E-06    62   0.121E-02    0.570E-02
RMM:  21    -0.896930801329E+02    0.73500E-05   -0.23923E-06    61   0.793E-03
  10 F= -.89693080E+02 E0= -.89689925E+02  d E =-.276909E+00
       N       E                     dE             d eps       ncg     rms          rms(c)
DAV:   1    -0.853731072894E+02    0.43200E+01   -0.71558E+02   128   0.198E+02    0.134E+01
RMM:   2    -0.912973724944E+02   -0.59243E+01   -0.61349E+01   144   0.418E+01    0.167E+01
RMM:   3    -0.902109443666E+02    0.10864E+01   -0.35003E+00   142   0.101E+01    0.193E+01
RMM:   4    -0.896146643495E+02    0.59628E+00   -0.55068E-01   137   0.361E+00    0.119E+01
RMM:   5    -0.895517891155E+02    0.62875E-01   -0.25145E-01   132   0.228E+00    0.124E+01
RMM:   6    -0.915901891808E+02   -0.20384E+01   -0.79041E-01   131   0.437E+00    0.204E+01
RMM:   7    -0.895311592434E+02    0.20590E+01   -0.69461E-01   130   0.428E+00    0.970E+00
RMM:   8    -0.901346700136E+02   -0.60351E+00   -0.48066E-01   141   0.299E+00    0.177E+01
RMM:   9    -0.894502342090E+02    0.68444E+00   -0.37093E-01   133   0.289E+00    0.480E+00
RMM:  10    -0.894294336094E+02    0.20801E-01   -0.11351E-01   138   0.148E+00    0.392E+00
RMM:  11    -0.894689988750E+02   -0.39565E-01   -0.16416E-02   145   0.486E-01    0.124E+01
RMM:  12    -0.893544063824E+02    0.11459E+00   -0.24304E-02   121   0.121E+00    0.583E+00
RMM:  13    -0.893784611902E+02   -0.24055E-01   -0.91125E-03   134   0.472E-01    0.570E+00
RMM:  14    -0.893811576740E+02   -0.26965E-02   -0.17703E-03   153   0.186E-01    0.602E+00
RMM:  15    -0.893726000076E+02    0.85577E-02   -0.10611E-03   131   0.152E-01    0.559E+00
RMM:  16    -0.893630980189E+02    0.95020E-02   -0.96992E-04   134   0.131E-01    0.182E+00
RMM:  17    -0.893965219233E+02   -0.33424E-01   -0.26724E-03   120   0.388E-01    0.107E+00
RMM:  18    -0.894033813469E+02   -0.68594E-02   -0.48872E-04   124   0.166E-01    0.112E+00
RMM:  19    -0.894034797533E+02   -0.98406E-04   -0.15919E-04   119   0.696E-02    0.681E-01
RMM:  20    -0.894043560213E+02   -0.87627E-03   -0.11015E-04   106   0.624E-02    0.440E-01
RMM:  21    -0.894048907575E+02   -0.53474E-03   -0.32628E-05    83   0.432E-02    0.389E-01
RMM:  22    -0.894049272776E+02   -0.36520E-04   -0.11610E-05    67   0.236E-02    0.205E-01
RMM:  23    -0.894050825335E+02   -0.15526E-03   -0.14564E-05    69   0.283E-02    0.100E-01
RMM:  24    -0.894051452034E+02   -0.62670E-04   -0.68468E-06    65   0.188E-02    0.682E-02
RMM:  25    -0.894051654260E+02   -0.20223E-04   -0.64851E-06    65   0.202E-02    0.233E-02
RMM:  26    -0.894051705017E+02   -0.50757E-05   -0.20465E-06    64   0.104E-02
  11 F= -.89405171E+02 E0= -.89400071E+02  d E =0.110007E-01
       N       E                     dE             d eps       ncg     rms          rms(c)
DAV:   1    -0.877137255720E+02    0.16914E+01   -0.41352E+02   128   0.153E+02    0.987E+00
RMM:   2    -0.899596526598E+02   -0.22459E+01   -0.25339E+01   148   0.286E+01    0.776E+00
RMM:   3    -0.901721136288E+02   -0.21246E+00   -0.14770E+00   145   0.601E+00    0.145E+01
RMM:   4    -0.909590305766E+02   -0.78692E+00   -0.12355E+00   133   0.470E+00    0.235E+01
RMM:   5    -0.897938240666E+02    0.11652E+01   -0.70547E-01   132   0.397E+00    0.694E+00
RMM:   6    -0.905299906291E+02   -0.73617E+00   -0.43031E-01   130   0.297E+00    0.168E+01
RMM:   7    -0.899745282578E+02    0.55546E+00   -0.26651E-01   130   0.258E+00    0.108E+01
RMM:   8    -0.899642758327E+02    0.10252E-01   -0.30516E-01   130   0.255E+00    0.895E+00
RMM:   9    -0.898090741616E+02    0.15520E+00   -0.10238E-01   135   0.158E+00    0.384E+00
RMM:  10    -0.897858613685E+02    0.23213E-01   -0.20954E-02   132   0.692E-01    0.315E+00
RMM:  11    -0.897690469461E+02    0.16814E-01   -0.69053E-03   149   0.302E-01    0.280E+00
RMM:  12    -0.897530089369E+02    0.16038E-01   -0.79156E-03   138   0.334E-01    0.153E+00
RMM:  13    -0.897587107639E+02   -0.57018E-02   -0.57827E-03   130   0.343E-01    0.769E-01
RMM:  14    -0.897629226933E+02   -0.42119E-02   -0.10184E-03   130   0.187E-01    0.749E-01
RMM:  15    -0.897676984607E+02   -0.47758E-02   -0.35881E-03   143   0.220E-01    0.294E+00
RMM:  16    -0.897576748001E+02    0.10024E-01   -0.32920E-03   125   0.419E-01    0.459E+00
RMM:  17    -0.897372342874E+02    0.20441E-01   -0.25708E-03   123   0.345E-01    0.569E+00
RMM:  18    -0.897087869915E+02    0.28447E-01   -0.68751E-04   130   0.185E-01    0.544E+00
RMM:  19    -0.896952920594E+02    0.13495E-01   -0.54264E-03   131   0.305E-01    0.871E-01
RMM:  20    -0.897621489045E+02   -0.66857E-01   -0.70978E-03   121   0.646E-01    0.864E-01
RMM:  21    -0.897638321966E+02   -0.16833E-02   -0.12172E-03   130   0.262E-01    0.348E-01
RMM:  22    -0.897644466849E+02   -0.61449E-03   -0.18051E-04   123   0.817E-02    0.438E-01
RMM:  23    -0.897640699050E+02    0.37678E-03   -0.38565E-04   120   0.991E-02    0.341E-01
RMM:  24    -0.897638380429E+02    0.23186E-03   -0.34505E-04   116   0.688E-02    0.118E-01
RMM:  25    -0.897640310087E+02   -0.19297E-03   -0.65761E-05    93   0.425E-02    0.149E-01
RMM:  26    -0.897639848825E+02    0.46126E-04   -0.39050E-05    72   0.335E-02    0.628E-02
RMM:  27    -0.897640310327E+02   -0.46150E-04   -0.48206E-05    81   0.314E-02    0.184E-01
RMM:  28    -0.897639574786E+02    0.73554E-04   -0.13354E-05    63   0.282E-02    0.872E-02
RMM:  29    -0.897639859245E+02   -0.28446E-04   -0.37541E-06    62   0.988E-03    0.843E-02
RMM:  30    -0.897639877491E+02   -0.18246E-05   -0.25271E-06    62   0.652E-03
  12 F= -.89763988E+02 E0= -.89759395E+02  d E =-.347817E+00
       N       E                     dE             d eps       ncg     rms          rms(c)
DAV:   1    -0.897194658950E+02    0.44520E-01   -0.21366E+01   136   0.340E+01    0.605E+00
RMM:   2    -0.900632232059E+02   -0.34376E+00   -0.18574E+00   148   0.701E+00    0.548E+00
RMM:   3    -0.898244195365E+02    0.23880E+00   -0.47531E-01   133   0.284E+00    0.386E+00
RMM:   4    -0.898696848511E+02   -0.45265E-01   -0.11878E-01   140   0.151E+00    0.703E+00
RMM:   5    -0.897814414284E+02    0.88243E-01   -0.45401E-02   129   0.103E+00    0.524E+00
RMM:   6    -0.897574112666E+02    0.24030E-01   -0.14585E-02   131   0.613E-01    0.310E+00
RMM:   7    -0.897783308123E+02   -0.20920E-01   -0.16049E-02   130   0.595E-01    0.520E+00
RMM:   8    -0.897610695260E+02    0.17261E-01   -0.21174E-02   121   0.994E-01    0.463E+00
RMM:   9    -0.897424205624E+02    0.18649E-01   -0.55148E-03   130   0.399E-01    0.245E+00
RMM:  10    -0.897851697356E+02   -0.42749E-01   -0.11124E-02   121   0.733E-01    0.417E+00
RMM:  11    -0.897479814557E+02    0.37188E-01   -0.66662E-03   121   0.598E-01    0.786E-01
RMM:  12    -0.897759761022E+02   -0.27995E-01   -0.31971E-03   122   0.417E-01    0.154E+00
RMM:  13    -0.897713993249E+02    0.45768E-02   -0.12000E-03   124   0.271E-01    0.324E-01
RMM:  14    -0.897746291096E+02   -0.32298E-02   -0.20751E-04   111   0.981E-02    0.379E-01
RMM:  15    -0.897747763006E+02   -0.14719E-03   -0.28388E-05    83   0.309E-02    0.128E-01
RMM:  16    -0.897752607828E+02   -0.48448E-03   -0.65891E-05    97   0.677E-02    0.130E-01
RMM:  17    -0.897752165280E+02    0.44255E-04   -0.54786E-06    63   0.196E-02    0.653E-02
RMM:  18    -0.897752331541E+02   -0.16626E-04   -0.12304E-06    59   0.792E-03    0.212E-02
RMM:  19    -0.897752478573E+02   -0.14703E-04   -0.11803E-06    61   0.882E-03    0.941E-03
RMM:  20    -0.897752503448E+02   -0.24875E-05   -0.35779E-07    48   0.466E-03
  13 F= -.89775250E+02 E0= -.89770016E+02  d E =-.359079E+00
       N       E                     dE             d eps       ncg     rms          rms(c)
DAV:   1    -0.897859186283E+02   -0.10671E-01   -0.18093E+00   132   0.117E+01    0.382E+00
RMM:   2    -0.899558353519E+02   -0.16992E+00   -0.37501E-01   145   0.265E+00    0.472E+00
RMM:   3    -0.897978686165E+02    0.15797E+00   -0.17932E-01   133   0.168E+00    0.348E+00
RMM:   4    -0.897802114959E+02    0.17657E-01   -0.19070E-02   140   0.648E-01    0.426E+00
RMM:   5    -0.897649980782E+02    0.15213E-01   -0.53857E-03   133   0.361E-01    0.289E+00
RMM:   6    -0.897688464724E+02   -0.38484E-02   -0.29964E-03   126   0.293E-01    0.237E+00
RMM:   7    -0.897707207182E+02   -0.18742E-02   -0.14448E-03   135   0.174E-01    0.770E-01
RMM:   8    -0.897855830985E+02   -0.14862E-01   -0.17178E-03   122   0.277E-01    0.554E-01
RMM:   9    -0.897874531543E+02   -0.18701E-02   -0.71618E-04   130   0.156E-01    0.227E-01
RMM:  10    -0.897881637577E+02   -0.71060E-03   -0.36334E-04   125   0.872E-02    0.980E-01
RMM:  11    -0.897856631948E+02    0.25006E-02   -0.17910E-04   110   0.961E-02    0.588E-01
RMM:  12    -0.897865386945E+02   -0.87550E-03   -0.10744E-04   105   0.630E-02    0.124E-01
RMM:  13    -0.897877247083E+02   -0.11860E-02   -0.13071E-04   112   0.913E-02    0.424E-02
RMM:  14    -0.897877304928E+02   -0.57845E-05   -0.44242E-06    62   0.137E-02
  14 F= -.89787730E+02 E0= -.89782327E+02  d E =-.124801E-01
       N       E                     dE             d eps       ncg     rms          rms(c)
DAV:   1    -0.897593194404E+02    0.28405E-01   -0.15807E+01   132   0.352E+01    0.521E+00
RMM:   2    -0.900580004763E+02   -0.29868E+00   -0.15619E+00   144   0.656E+00    0.587E+00
RMM:   3    -0.898087873656E+02    0.24921E+00   -0.32839E-01   134   0.258E+00    0.389E+00
RMM:   4    -0.898877289026E+02   -0.78942E-01   -0.49453E-02   140   0.109E+00    0.101E+01
RMM:   5    -0.897527510658E+02    0.13498E+00   -0.27772E-02   123   0.101E+00    0.323E+00
RMM:   6    -0.898150231750E+02   -0.62272E-01   -0.24969E-02   123   0.992E-01    0.301E+00
RMM:   7    -0.898008637468E+02    0.14159E-01   -0.70191E-03   132   0.462E-01    0.164E+00
RMM:   8    -0.898288303024E+02   -0.27967E-01   -0.12246E-02   135   0.466E-01    0.472E+00
RMM:   9    -0.897915042186E+02    0.37326E-01   -0.99424E-03   125   0.513E-01    0.173E+00
RMM:  10    -0.898076723540E+02   -0.16168E-01   -0.58799E-03   126   0.511E-01    0.146E+00
RMM:  11    -0.898055035874E+02    0.21688E-02   -0.18627E-03   124   0.293E-01    0.948E-01
RMM:  12    -0.898059516943E+02   -0.44811E-03   -0.24292E-04   124   0.984E-02    0.482E-01
RMM:  13    -0.898084242811E+02   -0.24726E-02   -0.49559E-04   113   0.176E-01    0.872E-02
RMM:  14    -0.898085168231E+02   -0.92542E-04   -0.23587E-05    75   0.350E-02    0.157E-01
RMM:  15    -0.898084618749E+02    0.54948E-04   -0.13060E-05    65   0.286E-02    0.286E-02
RMM:  16    -0.898085010724E+02   -0.39197E-04   -0.36269E-06    64   0.141E-02    0.165E-02
RMM:  17    -0.898085048108E+02   -0.37385E-05   -0.80287E-07    60   0.596E-03
  15 F= -.89808505E+02 E0= -.89802871E+02  d E =-.332545E-01
       N       E                     dE             d eps       ncg     rms          rms(c)
DAV:   1    -0.898393297926E+02   -0.30829E-01   -0.49133E-01   156   0.101E+01    0.265E+00
RMM:   2    -0.899716821164E+02   -0.13235E+00   -0.22350E-01   144   0.206E+00    0.512E+00
RMM:   3    -0.898241549403E+02    0.14753E+00   -0.96497E-02   130   0.128E+00    0.331E+00
RMM:   4    -0.898147209108E+02    0.94340E-02   -0.58868E-03   142   0.390E-01    0.152E+00
RMM:   5    -0.898352855425E+02   -0.20565E-01   -0.18401E-03   129   0.272E-01    0.123E+00
RMM:   6    -0.898395139640E+02   -0.42284E-02   -0.99271E-04   127   0.164E-01    0.705E-01
RMM:   7    -0.898434683244E+02   -0.39544E-02   -0.98887E-04   123   0.215E-01    0.327E-01
RMM:   8    -0.898435486321E+02   -0.80308E-04   -0.17320E-04   133   0.890E-02    0.196E-01
RMM:   9    -0.898436767859E+02   -0.12815E-03   -0.59270E-05    91   0.558E-02    0.348E-01
RMM:  10    -0.898434487442E+02    0.22804E-03   -0.87219E-05   112   0.587E-02    0.128E-01
RMM:  11    -0.898436621896E+02   -0.21345E-03   -0.49858E-05    94   0.451E-02    0.939E-02
RMM:  12    -0.898436789329E+02   -0.16743E-04   -0.17051E-05    66   0.251E-02    0.194E-01
RMM:  13    -0.898435869870E+02    0.91946E-04   -0.15027E-05    64   0.313E-02    0.337E-02
RMM:  14    -0.898436613490E+02   -0.74362E-04   -0.82520E-06    63   0.226E-02    0.355E-02
RMM:  15    -0.898436595147E+02    0.18344E-05   -0.14147E-06    61   0.987E-03
  16 F= -.89843660E+02 E0= -.89838018E+02  d E =-.351547E-01
       N       E                     dE             d eps       ncg     rms          rms(c)
DAV:   1    -0.898938334921E+02   -0.50172E-01   -0.43328E+00   156   0.302E+01    0.402E+00
RMM:   2    -0.901657328858E+02   -0.27190E+00   -0.12779E+00   142   0.515E+00    0.598E+00
RMM:   3    -0.899253037666E+02    0.24043E+00   -0.18155E-01   133   0.192E+00    0.363E+00
RMM:   4    -0.899414724207E+02   -0.16169E-01   -0.18080E-02   140   0.662E-01    0.632E+00
RMM:   5    -0.899064658805E+02    0.35007E-01   -0.91327E-03   125   0.580E-01    0.187E+00
RMM:   6    -0.899468943676E+02   -0.40428E-01   -0.11026E-02   123   0.690E-01    0.128E+00
RMM:   7    -0.899445997077E+02    0.22947E-02   -0.14399E-03   135   0.244E-01    0.362E-01
RMM:   8    -0.899466458103E+02   -0.20461E-02   -0.86945E-04   134   0.137E-01    0.881E-01
RMM:   9    -0.899454404660E+02    0.12053E-02   -0.13691E-03   126   0.197E-01    0.459E-01
RMM:  10    -0.899454385026E+02    0.19634E-05   -0.24500E-04   135   0.102E-01    0.420E-01
RMM:  11    -0.899455739776E+02   -0.13547E-03   -0.28427E-04   118   0.978E-02    0.609E-01
RMM:  12    -0.899448525423E+02    0.72144E-03   -0.16697E-04   110   0.904E-02    0.913E-02
RMM:  13    -0.899455496052E+02   -0.69706E-03   -0.74155E-05   101   0.585E-02    0.633E-02
RMM:  14    -0.899456554116E+02   -0.10581E-03   -0.18279E-05    66   0.260E-02    0.300E-01
RMM:  15    -0.899454638826E+02    0.19153E-03   -0.38689E-05    85   0.508E-02    0.318E-02
RMM:  16    -0.899456129621E+02   -0.14908E-03   -0.11341E-05    63   0.267E-02    0.299E-02
RMM:  17    -0.899456191052E+02   -0.61431E-05   -0.20500E-06    62   0.122E-02
  17 F= -.89945619E+02 E0= -.89940045E+02  d E =-.137114E+00
       N       E                     dE             d eps       ncg     rms          rms(c)
DAV:   1    -0.898781508507E+02    0.67462E-01   -0.17309E+01   156   0.602E+01    0.389E+00
RMM:   2    -0.903066938508E+02   -0.42854E+00   -0.39724E+00   145   0.953E+00    0.625E+00
RMM:   3    -0.901210795770E+02    0.18561E+00   -0.17989E-01   140   0.229E+00    0.356E+00
RMM:   4    -0.901860877868E+02   -0.65008E-01   -0.46240E-02   130   0.122E+00    0.619E+00
RMM:   5    -0.901144722870E+02    0.71615E-01   -0.15257E-02   132   0.696E-01    0.220E+00
RMM:   6    -0.901310481165E+02   -0.16576E-01   -0.66174E-03   134   0.381E-01    0.287E+00
RMM:   7    -0.901254814324E+02    0.55667E-02   -0.73882E-03   132   0.398E-01    0.114E+00
RMM:   8    -0.901451303748E+02   -0.19649E-01   -0.61579E-03   123   0.465E-01    0.400E+00
RMM:   9    -0.901202538911E+02    0.24876E-01   -0.72637E-03   124   0.540E-01    0.119E+00
RMM:  10    -0.901336467073E+02   -0.13393E-01   -0.45667E-03   121   0.456E-01    0.270E-01
RMM:  11    -0.901343311022E+02   -0.68439E-03   -0.27122E-04   151   0.936E-02    0.381E-01
RMM:  12    -0.901343192005E+02    0.11902E-04   -0.10283E-04   109   0.762E-02    0.156E-01
RMM:  13    -0.901344909927E+02   -0.17179E-03   -0.60864E-05   100   0.484E-02    0.105E-01
RMM:  14    -0.901345189114E+02   -0.27919E-04   -0.17393E-05    66   0.305E-02    0.752E-02
RMM:  15    -0.901345142784E+02    0.46330E-05   -0.51819E-06    65   0.168E-02
  18 F= -.90134514E+02 E0= -.90129559E+02  d E =-.326009E+00
       N       E                     dE             d eps       ncg     rms          rms(c)
DAV:   1    -0.893168074759E+02    0.81771E+00   -0.70009E+01   156   0.120E+02    0.448E+00
RMM:   2    -0.906614339672E+02   -0.13446E+01   -0.14482E+01   140   0.182E+01    0.213E+00
RMM:   3    -0.906778109256E+02   -0.16377E-01   -0.92110E-01   141   0.455E+00    0.103E+01
RMM:   4    -0.904624907308E+02    0.21532E+00   -0.97387E-02   137   0.164E+00    0.319E+00
RMM:   5    -0.904974723157E+02   -0.34982E-01   -0.28904E-02   134   0.828E-01    0.471E+00
RMM:   6    -0.904611598066E+02    0.36313E-01   -0.10172E-02   130   0.529E-01    0.187E+00
RMM:   7    -0.904649483331E+02   -0.37885E-02   -0.86076E-03   131   0.427E-01    0.158E+00
RMM:   8    -0.904626282815E+02    0.23201E-02   -0.20814E-02   127   0.720E-01    0.101E+00
RMM:   9    -0.904741193011E+02   -0.11491E-01   -0.14169E-02   137   0.555E-01    0.519E+00
RMM:  10    -0.904312441248E+02    0.42875E-01   -0.63765E-03   122   0.586E-01    0.136E+00
RMM:  11    -0.904551765765E+02   -0.23932E-01   -0.25485E-03   121   0.323E-01    0.418E-01
RMM:  12    -0.904612860339E+02   -0.61095E-02   -0.16863E-03   131   0.250E-01    0.230E-01
RMM:  13    -0.904616766228E+02   -0.39059E-03   -0.39349E-04   139   0.975E-02    0.208E-01
RMM:  14    -0.904617216817E+02   -0.45059E-04   -0.64169E-05    98   0.538E-02    0.207E-01
RMM:  15    -0.904616316593E+02    0.90022E-04   -0.77426E-05   110   0.437E-02    0.104E-01
RMM:  16    -0.904616608530E+02   -0.29194E-04   -0.14301E-05    64   0.239E-02    0.526E-02
RMM:  17    -0.904616767200E+02   -0.15867E-04   -0.63415E-06    63   0.155E-02    0.579E-02
RMM:  18    -0.904616746499E+02    0.20701E-05   -0.28018E-06    63   0.882E-03
  19 F= -.90461675E+02 E0= -.90460622E+02  d E =-.653170E+00
       N       E                     dE             d eps       ncg     rms          rms(c)
DAV:   1    -0.861268275930E+02    0.43348E+01   -0.29889E+02   164   0.236E+02    0.937E+00
RMM:   2    -0.917193471581E+02   -0.55925E+01   -0.55237E+01   142   0.362E+01    0.918E+00
RMM:   3    -0.915138274289E+02    0.20552E+00   -0.38921E+00   144   0.961E+00    0.176E+01
RMM:   4    -0.908297154115E+02    0.68411E+00   -0.60390E-01   135   0.383E+00    0.761E+00
RMM:   5    -0.919676467351E+02   -0.11379E+01   -0.72579E-01   126   0.385E+00    0.192E+01
RMM:   6    -0.908483544025E+02    0.11193E+01   -0.43086E-01   131   0.322E+00    0.829E+00
RMM:   7    -0.908160041237E+02    0.32350E-01   -0.13196E-01   128   0.163E+00    0.606E+00
RMM:   8    -0.907630531053E+02    0.52951E-01   -0.67340E-02   129   0.124E+00    0.259E+00
RMM:   9    -0.907649571323E+02   -0.19040E-02   -0.11082E-02   136   0.492E-01    0.233E+00
RMM:  10    -0.907686813033E+02   -0.37242E-02   -0.24401E-02   126   0.703E-01    0.138E+00
RMM:  11    -0.907741238481E+02   -0.54425E-02   -0.29644E-02   127   0.806E-01    0.249E+00
RMM:  12    -0.907605145930E+02    0.13609E-01   -0.46825E-03   151   0.402E-01    0.113E+00
RMM:  13    -0.907669650002E+02   -0.64504E-02   -0.36312E-03   129   0.301E-01    0.700E-01
RMM:  14    -0.907687091895E+02   -0.17442E-02   -0.15279E-03   130   0.227E-01    0.766E-01
RMM:  15    -0.907677150125E+02    0.99418E-03   -0.89672E-04   141   0.131E-01    0.588E-01
RMM:  16    -0.907681082033E+02   -0.39319E-03   -0.24786E-04   141   0.691E-02    0.525E-01
RMM:  17    -0.907683904873E+02   -0.28228E-03   -0.16724E-04   127   0.610E-02    0.400E-01
RMM:  18    -0.907687080226E+02   -0.31754E-03   -0.95195E-05   116   0.485E-02    0.330E-01
RMM:  19    -0.907688582175E+02   -0.15019E-03   -0.22004E-05    73   0.300E-02    0.275E-01
RMM:  20    -0.907689181283E+02   -0.59911E-04   -0.15442E-05    75   0.213E-02    0.233E-01
RMM:  21    -0.907689395422E+02   -0.21414E-04   -0.11441E-05    68   0.164E-02    0.193E-01
RMM:  22    -0.907689028486E+02    0.36694E-04   -0.71491E-05   106   0.285E-02    0.997E-02
RMM:  23    -0.907689751553E+02   -0.72307E-04   -0.19223E-05    74   0.226E-02    0.586E-02
RMM:  24    -0.907690005819E+02   -0.25427E-04   -0.14402E-05    71   0.158E-02    0.237E-02
RMM:  25    -0.907690137659E+02   -0.13184E-04   -0.76018E-06    65   0.127E-02    0.587E-03
RMM:  26    -0.907690181947E+02   -0.44288E-05   -0.18552E-06    62   0.746E-03
  20 F= -.90769018E+02 E0= -.90769018E+02  d E =-.960513E+00
       N       E                     dE             d eps       ncg     rms          rms(c)
DAV:   1    -0.907772971189E+02   -0.82834E-02   -0.28655E+01   128   0.438E+01    0.231E+00
RMM:   2    -0.909662987476E+02   -0.18900E+00   -0.19302E+00   152   0.783E+00    0.236E+00
RMM:   3    -0.909790906015E+02   -0.12792E-01   -0.10093E-01   133   0.160E+00    0.426E+00
RMM:   4    -0.909550100684E+02    0.24081E-01   -0.33777E-02   134   0.995E-01    0.325E+00
RMM:   5    -0.909565257824E+02   -0.15157E-02   -0.19432E-02   125   0.737E-01    0.275E+00
RMM:   6    -0.909500944853E+02    0.64313E-02   -0.89955E-03   130   0.490E-01    0.174E+00
RMM:   7    -0.909709213684E+02   -0.20827E-01   -0.13443E-02   123   0.581E-01    0.551E+00
RMM:   8    -0.909081724701E+02    0.62749E-01   -0.16068E-02   122   0.811E-01    0.120E+00
RMM:   9    -0.909496528690E+02   -0.41480E-01   -0.89626E-03   124   0.597E-01    0.618E-01
RMM:  10    -0.909492670484E+02    0.38582E-03   -0.13036E-03   134   0.200E-01    0.495E-01
RMM:  11    -0.909485824171E+02    0.68463E-03   -0.17638E-04   128   0.724E-02    0.266E-01
RMM:  12    -0.909488888995E+02   -0.30648E-03   -0.70540E-05    95   0.565E-02    0.210E-01
RMM:  13    -0.909489410686E+02   -0.52169E-04   -0.17758E-05    70   0.258E-02    0.181E-01
RMM:  14    -0.909489469740E+02   -0.59054E-05   -0.18395E-05    70   0.219E-02
  21 F= -.90948947E+02 E0= -.90948930E+02  d E =-.179929E+00
       N       E                     dE             d eps       ncg     rms          rms(c)
DAV:   1    -0.908255193371E+02    0.12342E+00   -0.31075E+01   128   0.456E+01    0.236E+00
RMM:   2    -0.910808481807E+02   -0.25533E+00   -0.20969E+00   152   0.818E+00    0.994E+00
RMM:   3    -0.909354025935E+02    0.14545E+00   -0.99330E-02   131   0.177E+00    0.280E+00
RMM:   4    -0.910227997442E+02   -0.87397E-01   -0.38791E-02   126   0.118E+00    0.375E+00
RMM:   5    -0.910254711545E+02   -0.26714E-02   -0.20375E-02   135   0.775E-01    0.327E+00
RMM:   6    -0.910207361646E+02    0.47350E-02   -0.14386E-02   130   0.612E-01    0.283E+00
RMM:   7    -0.910143844806E+02    0.63517E-02   -0.10526E-02   126   0.538E-01    0.222E+00
RMM:   8    -0.910114809072E+02    0.29036E-02   -0.46685E-03   129   0.369E-01    0.168E+00
RMM:   9    -0.910109324846E+02    0.54842E-03   -0.12423E-02   129   0.594E-01    0.124E+00
RMM:  10    -0.910109619171E+02   -0.29433E-04   -0.62612E-03   128   0.463E-01    0.525E-01
RMM:  11    -0.910112419198E+02   -0.28000E-03   -0.58286E-04   130   0.135E-01    0.329E-01
RMM:  12    -0.910117475065E+02   -0.50559E-03   -0.16171E-04   113   0.642E-02    0.276E-01
RMM:  13    -0.910120713045E+02   -0.32380E-03   -0.98853E-05   112   0.499E-02    0.265E-01
RMM:  14    -0.910121232894E+02   -0.51985E-04   -0.24279E-05    73   0.301E-02    0.205E-01
RMM:  15    -0.910121314182E+02   -0.81288E-05   -0.10634E-05    66   0.241E-02
  22 F= -.91012131E+02 E0= -.91011928E+02  d E =-.243113E+00
       N       E                     dE             d eps       ncg     rms          rms(c)
DAV:   1    -0.910229673968E+02   -0.10844E-01   -0.91215E-01   124   0.690E+00    0.170E+00
RMM:   2    -0.910362823628E+02   -0.13315E-01   -0.59404E-02   149   0.129E+00    0.345E+00
RMM:   3    -0.912188227129E+02   -0.18254E+00   -0.54381E-02   125   0.124E+00    0.124E+01
RMM:   4    -0.909233690338E+02    0.29545E+00   -0.40858E-02   125   0.132E+00    0.197E+00
RMM:   5    -0.910241054240E+02   -0.10074E+00   -0.22348E-02   125   0.865E-01    0.304E+00
RMM:   6    -0.910202346807E+02    0.38707E-02   -0.69854E-03   130   0.512E-01    0.610E-01
RMM:   7    -0.910275825417E+02   -0.73479E-02   -0.30231E-03   132   0.279E-01    0.166E+00
RMM:   8    -0.910223301846E+02    0.52524E-02   -0.14995E-03   130   0.205E-01    0.329E-01
RMM:   9    -0.910233831018E+02   -0.10529E-02   -0.36186E-04   132   0.101E-01    0.253E-01
RMM:  10    -0.910236632451E+02   -0.28014E-03   -0.26658E-04   123   0.764E-02    0.247E-01
RMM:  11    -0.910237517420E+02   -0.88497E-04   -0.98071E-05   119   0.487E-02    0.205E-01
RMM:  12    -0.910236511512E+02    0.10059E-03   -0.27352E-05    80   0.334E-02    0.177E-01
RMM:  13    -0.910236342647E+02    0.16887E-04   -0.11256E-05    69   0.191E-02    0.135E-01
RMM:  14    -0.910236703580E+02   -0.36093E-04   -0.10240E-05    65   0.176E-02    0.121E-01
RMM:  15    -0.910236532929E+02    0.17065E-04   -0.63043E-06    65   0.117E-02    0.102E-01
RMM:  16    -0.910236605517E+02   -0.72588E-05   -0.13509E-05    70   0.163E-02
  23 F= -.91023661E+02 E0= -.91023414E+02  d E =-.115291E-01
       N       E                     dE             d eps       ncg     rms          rms(c)
DAV:   1    -0.910390454165E+02   -0.15392E-01   -0.81434E+00   124   0.207E+01    0.343E+00
RMM:   2    -0.911070334453E+02   -0.67988E-01   -0.54534E-01   144   0.380E+00    0.388E+00
RMM:   3    -0.912665053152E+02   -0.15947E+00   -0.21677E-01   128   0.222E+00    0.106E+01
RMM:   4    -0.910735097168E+02    0.19300E+00   -0.72649E-02   133   0.141E+00    0.821E+00
RMM:   5    -0.909924553012E+02    0.81054E-01   -0.33231E-02   124   0.118E+00    0.125E+00
RMM:   6    -0.910577750235E+02   -0.65320E-01   -0.24248E-02   124   0.922E-01    0.729E-01
RMM:   7    -0.910605950099E+02   -0.28200E-02   -0.27390E-03   138   0.289E-01    0.143E+00
RMM:   8    -0.910566670811E+02    0.39279E-02   -0.12497E-03   127   0.191E-01    0.597E-01
RMM:   9    -0.910573021218E+02   -0.63504E-03   -0.13020E-03   134   0.159E-01    0.474E-01
RMM:  10    -0.910573859388E+02   -0.83817E-04   -0.56642E-04   133   0.105E-01    0.528E-01
RMM:  11    -0.910568237486E+02    0.56219E-03   -0.23376E-04   127   0.750E-02    0.388E-01
RMM:  12    -0.910568756848E+02   -0.51936E-04   -0.99738E-05   103   0.595E-02    0.342E-01
RMM:  13    -0.910569071023E+02   -0.31418E-04   -0.14528E-05    72   0.225E-02    0.324E-01
RMM:  14    -0.910569040162E+02    0.30861E-05   -0.13573E-05    70   0.179E-02
  24 F= -.91056904E+02 E0= -.91056817E+02  d E =-.447726E-01
       N       E                     dE             d eps       ncg     rms          rms(c)
DAV:   1    -0.909883286133E+02    0.68578E-01   -0.31981E+01   132   0.415E+01    0.360E+00
RMM:   2    -0.911782362723E+02   -0.18991E+00   -0.19024E+00   143   0.713E+00    0.401E+00
RMM:   3    -0.915765255036E+02   -0.39829E+00   -0.40414E-01   129   0.292E+00    0.143E+01
RMM:   4    -0.910773736158E+02    0.49915E+00   -0.15152E-01   130   0.197E+00    0.234E+00
RMM:   5    -0.911712406117E+02   -0.93867E-01   -0.54887E-02   133   0.106E+00    0.650E+00
RMM:   6    -0.910927534585E+02    0.78487E-01   -0.30935E-02   128   0.890E-01    0.732E-01
RMM:   7    -0.911060635095E+02   -0.13310E-01   -0.87391E-03   137   0.441E-01    0.511E-01
RMM:   8    -0.911068112021E+02   -0.74769E-03   -0.46094E-03   132   0.328E-01    0.481E-01
RMM:   9    -0.911065039620E+02    0.30724E-03   -0.22518E-03   128   0.223E-01    0.200E-01
RMM:  10    -0.911066128951E+02   -0.10893E-03   -0.68620E-04   140   0.114E-01    0.129E-01
RMM:  11    -0.911065734418E+02    0.39453E-04   -0.13510E-04   117   0.565E-02    0.698E-02
RMM:  12    -0.911065780156E+02   -0.45738E-05   -0.27681E-05    76   0.280E-02
  25 F= -.91106578E+02 E0= -.91106578E+02  d E =-.944466E-01
       N       E                     dE             d eps       ncg     rms          rms(c)
DAV:   1    -0.904758194259E+02    0.63075E+00   -0.12596E+02   124   0.829E+01    0.372E+00
RMM:   2    -0.912232355816E+02   -0.74742E+00   -0.74592E+00   145   0.141E+01    0.585E+00
RMM:   3    -0.917629776224E+02   -0.53974E+00   -0.66302E-01   137   0.401E+00    0.163E+01
RMM:   4    -0.910647513879E+02    0.69823E+00   -0.27266E-01   131   0.258E+00    0.392E+00
RMM:   5    -0.911453652931E+02   -0.80614E-01   -0.79634E-02   140   0.127E+00    0.653E+00
RMM:   6    -0.910670105139E+02    0.78355E-01   -0.43686E-02   129   0.107E+00    0.117E+00
RMM:   7    -0.910762518597E+02   -0.92413E-02   -0.18162E-02   130   0.645E-01    0.739E-01
RMM:   8    -0.910765407621E+02   -0.28890E-03   -0.14148E-02   131   0.553E-01    0.614E-01
RMM:   9    -0.910754962301E+02    0.10445E-02   -0.42669E-03   140   0.300E-01    0.178E-01
RMM:  10    -0.910754879120E+02    0.83181E-05   -0.73304E-04   143   0.120E-01    0.121E-01
RMM:  11    -0.910754242846E+02    0.63627E-04   -0.16160E-04   126   0.545E-02    0.730E-02
RMM:  12    -0.910754160275E+02    0.82571E-05   -0.63318E-05   104   0.351E-02
  26 F= -.91075416E+02 E0= -.91075416E+02  d E =-.632846E-01
       N       E                     dE             d eps       ncg     rms          rms(c)
DAV:   1    -0.908551553699E+02    0.22027E+00   -0.58171E+01   124   0.564E+01    0.274E+00
RMM:   2    -0.911542127370E+02   -0.29906E+00   -0.30530E+00   146   0.938E+00    0.331E+00
RMM:   3    -0.915410600386E+02   -0.38685E+00   -0.29718E-01   136   0.269E+00    0.138E+01
RMM:   4    -0.910911834516E+02    0.44988E+00   -0.13340E-01   129   0.185E+00    0.224E+00
RMM:   5    -0.911452879207E+02   -0.54104E-01   -0.32594E-02   133   0.883E-01    0.419E+00
RMM:   6    -0.911146817787E+02    0.30606E-01   -0.16419E-02   130   0.660E-01    0.759E-01
RMM:   7    -0.911182628483E+02   -0.35811E-02   -0.38538E-03   132   0.315E-01    0.490E-01
RMM:   8    -0.911185545628E+02   -0.29171E-03   -0.53710E-03   127   0.334E-01    0.468E-01
RMM:   9    -0.911180640096E+02    0.49055E-03   -0.19449E-03   137   0.199E-01    0.182E-01
RMM:  10    -0.911180135733E+02    0.50436E-04   -0.36122E-04   133   0.900E-02    0.798E-02
RMM:  11    -0.911179801562E+02    0.33417E-04   -0.56502E-05    92   0.376E-02    0.470E-02
RMM:  12    -0.911179774595E+02    0.26967E-05   -0.26129E-05    80   0.260E-02
  27 F= -.91117977E+02 E0= -.91117977E+02  d E =-.105846E+00
       N       E                     dE             d eps       ncg     rms          rms(c)
DAV:   1    -0.911129014542E+02    0.50787E-02   -0.12848E+00   140   0.144E+01    0.874E-01
RMM:   2    -0.911355333347E+02   -0.22632E-01   -0.22599E-01   143   0.224E+00    0.119E+00
RMM:   3    -0.911730982010E+02   -0.37565E-01   -0.31260E-02   135   0.811E-01    0.524E+00
RMM:   4    -0.911219209873E+02    0.51177E-01   -0.13196E-02   129   0.626E-01    0.562E-01
RMM:   5    -0.911363549593E+02   -0.14434E-01   -0.54729E-03   127   0.374E-01    0.214E+00
RMM:   6    -0.911282565463E+02    0.80984E-02   -0.26580E-03   130   0.278E-01    0.228E-01
RMM:   7    -0.911296809527E+02   -0.14244E-02   -0.82326E-04   135   0.151E-01    0.143E-01
RMM:   8    -0.911296946533E+02   -0.13701E-04   -0.24856E-04   133   0.813E-02    0.670E-02
RMM:   9    -0.911296863375E+02    0.83159E-05   -0.46345E-05   103   0.336E-02
  28 F= -.91129686E+02 E0= -.91129686E+02  d E =-.117089E-01
       N       E                     dE             d eps       ncg     rms          rms(c)
DAV:   1    -0.909992159358E+02    0.13048E+00   -0.11582E+01   140   0.431E+01    0.234E+00
RMM:   2    -0.911904343115E+02   -0.19122E+00   -0.19104E+00   146   0.671E+00    0.333E+00
RMM:   3    -0.914463325462E+02   -0.25590E+00   -0.24108E-01   134   0.222E+00    0.123E+01
RMM:   4    -0.911299077049E+02    0.31642E+00   -0.97725E-02   130   0.163E+00    0.211E+00
RMM:   5    -0.911943886997E+02   -0.64481E-01   -0.34602E-02   130   0.898E-01    0.515E+00
RMM:   6    -0.911474262820E+02    0.46962E-01   -0.21275E-02   130   0.777E-01    0.662E-01
RMM:   7    -0.911542253505E+02   -0.67991E-02   -0.57491E-03   135   0.385E-01    0.352E-01
RMM:   8    -0.911544920096E+02   -0.26666E-03   -0.26654E-03   134   0.252E-01    0.324E-01
RMM:   9    -0.911542507908E+02    0.24122E-03   -0.81335E-04   142   0.137E-01    0.130E-01
RMM:  10    -0.911542247531E+02    0.26038E-04   -0.14951E-04   122   0.554E-02    0.763E-02
RMM:  11    -0.911542148392E+02    0.99139E-05   -0.21508E-05    71   0.280E-02
  29 F= -.91154215E+02 E0= -.91154215E+02  d E =-.362374E-01
       N       E                     dE             d eps       ncg     rms          rms(c)
DAV:   1    -0.905021093982E+02    0.65212E+00   -0.46168E+01   140   0.861E+01    0.406E+00
RMM:   2    -0.912562026501E+02   -0.75409E+00   -0.76648E+00   147   0.135E+01    0.544E+00
RMM:   3    -0.918611729332E+02   -0.60497E+00   -0.71991E-01   138   0.402E+00    0.174E+01
RMM:   4    -0.911577806956E+02    0.70339E+00   -0.26753E-01   130   0.257E+00    0.523E+00
RMM:   5    -0.912213193048E+02   -0.63539E-01   -0.94603E-02   131   0.142E+00    0.672E+00
RMM:   6    -0.911424972609E+02    0.78822E-01   -0.64089E-02   130   0.130E+00    0.137E+00
RMM:   7    -0.911494614573E+02   -0.69642E-02   -0.17093E-02   132   0.690E-01    0.733E-01
RMM:   8    -0.911502505078E+02   -0.78905E-03   -0.12521E-02   133   0.553E-01    0.839E-01
RMM:   9    -0.911486768318E+02    0.15737E-02   -0.41069E-03   141   0.308E-01    0.344E-01
RMM:  10    -0.911485417934E+02    0.13504E-03   -0.82488E-04   138   0.123E-01    0.124E-01
RMM:  11    -0.911485411461E+02    0.64732E-06   -0.98519E-05   130   0.557E-02
  30 F= -.91148541E+02 E0= -.91148541E+02  d E =-.305637E-01
       N       E                     dE             d eps       ncg     rms          rms(c)
DAV:   1    -0.909261673516E+02    0.22237E+00   -0.16541E+01   140   0.520E+01    0.254E+00
RMM:   2    -0.912027012265E+02   -0.27653E+00   -0.28706E+00   143   0.823E+00    0.272E+00
RMM:   3    -0.914126902286E+02   -0.20999E+00   -0.27713E-01   137   0.246E+00    0.113E+01
RMM:   4    -0.911425987503E+02    0.27009E+00   -0.94484E-02   131   0.156E+00    0.180E+00
RMM:   5    -0.911624941939E+02   -0.19895E-01   -0.21648E-02   129   0.815E-01    0.105E+00
RMM:   6    -0.911709172629E+02   -0.84231E-02   -0.53887E-03   140   0.337E-01    0.253E+00
RMM:   7    -0.911597842567E+02    0.11133E-01   -0.72595E-03   130   0.462E-01    0.466E-01
RMM:   8    -0.911615004884E+02   -0.17162E-02   -0.38230E-03   130   0.337E-01    0.338E-01
RMM:   9    -0.911611652039E+02    0.33528E-03   -0.86290E-04   137   0.140E-01    0.872E-02
RMM:  10    -0.911611530270E+02    0.12177E-04   -0.16217E-04   128   0.585E-02    0.712E-02
RMM:  11    -0.911611326627E+02    0.20364E-04   -0.46092E-05    86   0.383E-02    0.410E-02
RMM:  12    -0.911611281718E+02    0.44908E-05   -0.12461E-05    70   0.202E-02
  31 F= -.91161128E+02 E0= -.91161128E+02  d E =-.431507E-01
       N       E                     dE             d eps       ncg     rms          rms(c)
DAV:   1    -0.911474185828E+02    0.13714E-01   -0.15174E+00   156   0.191E+01    0.573E-01
RMM:   2    -0.911838670807E+02   -0.36448E-01   -0.36998E-01   143   0.289E+00    0.603E-01
RMM:   3    -0.911986396909E+02   -0.14773E-01   -0.26017E-02   139   0.747E-01    0.344E+00
RMM:   4    -0.911767071765E+02    0.21933E-01   -0.49689E-03   130   0.410E-01    0.399E-01
RMM:   5    -0.911807961021E+02   -0.40889E-02   -0.14033E-03   126   0.206E-01    0.870E-01
RMM:   6    -0.911795793487E+02    0.12168E-02   -0.64180E-04   131   0.139E-01    0.201E-01
RMM:   7    -0.911797174115E+02   -0.13806E-03   -0.50673E-04   128   0.127E-01    0.125E-01
RMM:   8    -0.911797066994E+02    0.10712E-04   -0.27511E-04   129   0.912E-02    0.285E-02
RMM:   9    -0.911797117936E+02   -0.50942E-05   -0.19892E-05    74   0.242E-02
  32 F= -.91179712E+02 E0= -.91179712E+02  d E =-.185836E-01
       N       E                     dE             d eps       ncg     rms          rms(c)
DAV:   1    -0.909219573615E+02    0.25775E+00   -0.13770E+01   156   0.573E+01    0.177E+00
RMM:   2    -0.912544701384E+02   -0.33251E+00   -0.33775E+00   144   0.870E+00    0.181E+00
RMM:   3    -0.913888177099E+02   -0.13435E+00   -0.24665E-01   140   0.227E+00    0.956E+00
RMM:   4    -0.911993029949E+02    0.18951E+00   -0.51281E-02   132   0.122E+00    0.119E+00
RMM:   5    -0.912272984317E+02   -0.27995E-01   -0.13458E-02   132   0.573E-01    0.283E+00
RMM:   6    -0.912138868682E+02    0.13412E-01   -0.61281E-03   131   0.418E-01    0.651E-01
RMM:   7    -0.912152491057E+02   -0.13622E-02   -0.39690E-03   128   0.353E-01    0.407E-01
RMM:   8    -0.912151405063E+02    0.10860E-03   -0.23947E-03   131   0.266E-01    0.186E-01
RMM:   9    -0.912152269823E+02   -0.86476E-04   -0.40934E-04   141   0.110E-01    0.952E-02
RMM:  10    -0.912152028159E+02    0.24166E-04   -0.66110E-05   109   0.423E-02    0.584E-02
RMM:  11    -0.912151955132E+02    0.73027E-05   -0.66684E-05   106   0.440E-02
  33 F= -.91215196E+02 E0= -.91215196E+02  d E =-.540673E-01
       N       E                     dE             d eps       ncg     rms          rms(c)
DAV:   1    -0.900074201876E+02    0.12078E+01   -0.56051E+01   156   0.114E+02    0.400E+00
RMM:   2    -0.913048076850E+02   -0.12974E+01   -0.13192E+01   145   0.176E+01    0.403E+00
RMM:   3    -0.915173889362E+02   -0.21258E+00   -0.90294E-01   146   0.437E+00    0.125E+01
RMM:   4    -0.912161437468E+02    0.30125E+00   -0.17936E-01   131   0.207E+00    0.485E+00
RMM:   5    -0.911937832087E+02    0.22361E-01   -0.42679E-02   132   0.112E+00    0.169E+00
RMM:   6    -0.911987338653E+02   -0.49507E-02   -0.26085E-02   131   0.836E-01    0.156E+00
RMM:   7    -0.912184070287E+02   -0.19673E-01   -0.10213E-02   135   0.489E-01    0.387E+00
RMM:   8    -0.911929058013E+02    0.25501E-01   -0.80320E-03   128   0.493E-01    0.104E+00
RMM:   9    -0.911971588393E+02   -0.42530E-02   -0.12579E-02   124   0.606E-01    0.665E-01
RMM:  10    -0.911966256802E+02    0.53316E-03   -0.28343E-03   134   0.283E-01    0.313E-01
RMM:  11    -0.911964561251E+02    0.16956E-03   -0.63422E-04   136   0.108E-01    0.205E-01
RMM:  12    -0.911964248191E+02    0.31306E-04   -0.23250E-04   132   0.769E-02    0.163E-01
RMM:  13    -0.911963838193E+02    0.41000E-04   -0.11501E-04   117   0.502E-02    0.762E-02
RMM:  14    -0.911963962437E+02   -0.12424E-04   -0.22829E-05    75   0.289E-02    0.472E-02
RMM:  15    -0.911963954391E+02    0.80460E-06   -0.17079E-05    71   0.239E-02
  34 F= -.91196395E+02 E0= -.91196394E+02  d E =-.352673E-01
       N       E                     dE             d eps       ncg     rms          rms(c)
DAV:   1    -0.907215590481E+02    0.47484E+00   -0.24074E+01   156   0.758E+01    0.277E+00
RMM:   2    -0.912513419112E+02   -0.52978E+00   -0.54332E+00   147   0.114E+01    0.227E+00
RMM:   3    -0.913811151619E+02   -0.12977E+00   -0.38740E-01   137   0.286E+00    0.935E+00
RMM:   4    -0.912147907976E+02    0.16632E+00   -0.67975E-02   131   0.132E+00    0.219E+00
RMM:   5    -0.912223029818E+02   -0.75122E-02   -0.17445E-02   128   0.746E-01    0.870E-01
RMM:   6    -0.912390827824E+02   -0.16780E-01   -0.81684E-03   132   0.427E-01    0.331E+00
RMM:   7    -0.912201213185E+02    0.18961E-01   -0.72541E-03   130   0.453E-01    0.807E-01
RMM:   8    -0.912218836180E+02   -0.17623E-02   -0.60608E-03   123   0.466E-01    0.258E-01
RMM:   9    -0.912219885854E+02   -0.10497E-03   -0.12470E-03   151   0.170E-01    0.179E-01
RMM:  10    -0.912219669436E+02    0.21642E-04   -0.15834E-04   127   0.610E-02    0.693E-02
RMM:  11    -0.912219855083E+02   -0.18565E-04   -0.12203E-04   117   0.552E-02    0.470E-02
RMM:  12    -0.912219771756E+02    0.83327E-05   -0.46101E-05    88   0.373E-02
  35 F= -.91221977E+02 E0= -.91221977E+02  d E =-.608490E-01
       N       E                     dE             d eps       ncg     rms          rms(c)
DAV:   1    -0.912230488135E+02   -0.10633E-02   -0.31237E+00   120   0.124E+01    0.103E+00
RMM:   2    -0.912455669029E+02   -0.22518E-01   -0.16609E-01   141   0.218E+00    0.233E+00
RMM:   3    -0.912711948136E+02   -0.25628E-01   -0.28488E-02   135   0.820E-01    0.486E+00
RMM:   4    -0.912293254767E+02    0.41869E-01   -0.16902E-02   128   0.669E-01    0.770E-01
RMM:   5    -0.912451827829E+02   -0.15857E-01   -0.69655E-03   133   0.397E-01    0.267E+00
RMM:   6    -0.912326254159E+02    0.12557E-01   -0.44454E-03   128   0.346E-01    0.416E-01
RMM:   7    -0.912342446682E+02   -0.16193E-02   -0.20036E-03   132   0.221E-01    0.292E-01
RMM:   8    -0.912340237653E+02    0.22090E-03   -0.52251E-04   137   0.104E-01    0.841E-02
RMM:   9    -0.912340746526E+02   -0.50887E-04   -0.12747E-04   120   0.544E-02    0.292E-02
RMM:  10    -0.912340717230E+02    0.29296E-05   -0.10467E-05    70   0.177E-02
  36 F= -.91234072E+02 E0= -.91234072E+02  d E =-.120945E-01
       N       E                     dE             d eps       ncg     rms          rms(c)
DAV:   1    -0.912262966178E+02    0.77780E-02   -0.33710E+00   120   0.129E+01    0.106E+00
RMM:   2    -0.912534461459E+02   -0.27150E-01   -0.18362E-01   140   0.226E+00    0.272E+00
RMM:   3    -0.912729758459E+02   -0.19530E-01   -0.29618E-02   136   0.840E-01    0.477E+00
RMM:   4    -0.912338962571E+02    0.39080E-01   -0.17736E-02   129   0.686E-01    0.892E-01
RMM:   5    -0.912471112902E+02   -0.13215E-01   -0.64943E-03   130   0.391E-01    0.241E+00
RMM:   6    -0.912371547598E+02    0.99565E-02   -0.42624E-03   128   0.336E-01    0.404E-01
RMM:   7    -0.912384550186E+02   -0.13003E-02   -0.18904E-03   132   0.215E-01    0.311E-01
RMM:   8    -0.912381997906E+02    0.25523E-03   -0.51811E-04   135   0.104E-01    0.817E-02
RMM:   9    -0.912382568748E+02   -0.57084E-04   -0.13436E-04   121   0.555E-02    0.345E-02
RMM:  10    -0.912382525455E+02    0.43293E-05   -0.10054E-05    70   0.177E-02
  37 F= -.91238253E+02 E0= -.91238253E+02  d E =-.162754E-01
       N       E                     dE             d eps       ncg     rms          rms(c)
DAV:   1    -0.912207314925E+02    0.17525E-01   -0.32773E+00   140   0.194E+01    0.973E-01
RMM:   2    -0.912572413422E+02   -0.36510E-01   -0.35640E-01   148   0.311E+00    0.137E+00
RMM:   3    -0.913002053918E+02   -0.42964E-01   -0.39185E-02   137   0.931E-01    0.560E+00
RMM:   4    -0.912429066180E+02    0.57299E-01   -0.15300E-02   130   0.673E-01    0.598E-01
RMM:   5    -0.912541812827E+02   -0.11275E-01   -0.43996E-03   128   0.364E-01    0.160E+00
RMM:   6    -0.912498584358E+02    0.43228E-02   -0.14555E-03   132   0.204E-01    0.299E-01
RMM:   7    -0.912504728589E+02   -0.61442E-03   -0.82970E-04   131   0.152E-01    0.199E-01
RMM:   8    -0.912504084524E+02    0.64407E-04   -0.39371E-04   135   0.945E-02    0.721E-02
RMM:   9    -0.912504012717E+02    0.71807E-05   -0.81390E-05   118   0.433E-02
  38 F= -.91250401E+02 E0= -.91250401E+02  d E =-.121487E-01
       N       E                     dE             d eps       ncg     rms          rms(c)
DAV:   1    -0.910012325248E+02    0.24918E+00   -0.29337E+01   140   0.580E+01    0.265E+00
RMM:   2    -0.913283427328E+02   -0.32711E+00   -0.32104E+00   148   0.935E+00    0.398E+00
RMM:   3    -0.916337684025E+02   -0.30543E+00   -0.30276E-01   139   0.263E+00    0.137E+01
RMM:   4    -0.912444984054E+02    0.38927E+00   -0.13536E-01   129   0.186E+00    0.244E+00
RMM:   5    -0.913121278387E+02   -0.67629E-01   -0.37216E-02   132   0.999E-01    0.494E+00
RMM:   6    -0.912682875579E+02    0.43840E-01   -0.19272E-02   129   0.724E-01    0.811E-01
RMM:   7    -0.912730876422E+02   -0.48001E-02   -0.59589E-03   132   0.402E-01    0.504E-01
RMM:   8    -0.912734377428E+02   -0.35010E-03   -0.47315E-03   130   0.324E-01    0.550E-01
RMM:   9    -0.912727837050E+02    0.65404E-03   -0.11470E-03   141   0.157E-01    0.126E-01
RMM:  10    -0.912728015036E+02   -0.17799E-04   -0.21009E-04   133   0.682E-02    0.847E-02
RMM:  11    -0.912727944191E+02    0.70845E-05   -0.36635E-05    88   0.317E-02
  39 F= -.91272794E+02 E0= -.91272794E+02  d E =-.345419E-01
       N       E                     dE             d eps       ncg     rms          rms(c)
DAV:   1    -0.912121014413E+02    0.60700E-01   -0.68002E+00   140   0.279E+01    0.120E+00
RMM:   2    -0.912881763582E+02   -0.76075E-01   -0.74151E-01   148   0.450E+00    0.192E+00
RMM:   3    -0.913509273712E+02   -0.62751E-01   -0.66130E-02   138   0.122E+00    0.679E+00
RMM:   4    -0.912646463412E+02    0.86281E-01   -0.27721E-02   129   0.883E-01    0.811E-01
RMM:   5    -0.912852099171E+02   -0.20564E-01   -0.82106E-03   131   0.481E-01    0.249E+00
RMM:   6    -0.912741485006E+02    0.11061E-01   -0.35151E-03   130   0.317E-01    0.401E-01
RMM:   7    -0.912757627403E+02   -0.16142E-02   -0.18706E-03   129   0.226E-01    0.262E-01
RMM:   8    -0.912756940839E+02    0.68656E-04   -0.85378E-04   135   0.136E-01    0.141E-01
RMM:   9    -0.912756523501E+02    0.41734E-04   -0.14150E-04   136   0.583E-02    0.603E-02
RMM:  10    -0.912756445252E+02    0.78250E-05   -0.25293E-05    79   0.268E-02
  40 F= -.91275645E+02 E0= -.91275645E+02  d E =-.373920E-01
       N       E                     dE             d eps       ncg     rms          rms(c)
DAV:   1    -0.912666470810E+02    0.90053E-02   -0.13231E+00   148   0.140E+01    0.387E-01
RMM:   2    -0.912863457108E+02   -0.19699E-01   -0.18674E-01   145   0.210E+00    0.998E-01
RMM:   3    -0.912863204701E+02    0.25241E-04   -0.12534E-02   139   0.496E-01    0.138E+00
RMM:   4    -0.912837019336E+02    0.26185E-02   -0.14077E-03   127   0.216E-01    0.601E-01
RMM:   5    -0.912835244614E+02    0.17747E-03   -0.32973E-04   132   0.104E-01    0.212E-01
RMM:   6    -0.912836018313E+02   -0.77370E-04   -0.26348E-04   128   0.843E-02    0.134E-01
RMM:   7    -0.912835708218E+02    0.31010E-04   -0.18105E-04   128   0.744E-02    0.682E-02
RMM:   8    -0.912835843936E+02   -0.13572E-04   -0.11597E-04   122   0.572E-02    0.269E-02
RMM:   9    -0.912835835001E+02    0.89352E-06   -0.75329E-06    68   0.157E-02
  41 F= -.91283584E+02 E0= -.91283584E+02  d E =-.793897E-02
       N       E                     dE             d eps       ncg     rms          rms(c)
DAV:   1    -0.911533162984E+02    0.13027E+00   -0.11914E+01   148   0.422E+01    0.115E+00
RMM:   2    -0.913199737532E+02   -0.16666E+00   -0.16795E+00   145   0.631E+00    0.139E+00
RMM:   3    -0.913753337214E+02   -0.55360E-01   -0.11875E-01   142   0.153E+00    0.645E+00
RMM:   4    -0.912965351942E+02    0.78799E-01   -0.20920E-02   128   0.795E-01    0.106E+00
RMM:   5    -0.913073873439E+02   -0.10852E-01   -0.44040E-03   134   0.372E-01    0.109E+00
RMM:   6    -0.913060634490E+02    0.13239E-02   -0.24140E-03   131   0.255E-01    0.412E-01
RMM:   7    -0.913058923788E+02    0.17107E-03   -0.14494E-03   128   0.211E-01    0.231E-01
RMM:   8    -0.913060318806E+02   -0.13950E-03   -0.13680E-03   127   0.192E-01    0.133E-01
RMM:   9    -0.913060122252E+02    0.19655E-04   -0.15222E-04   142   0.623E-02    0.827E-02
RMM:  10    -0.913059975832E+02    0.14642E-04   -0.34096E-05    79   0.331E-02    0.450E-02
RMM:  11    -0.913059944808E+02    0.31023E-05   -0.19915E-05    74   0.269E-02
  42 F= -.91305994E+02 E0= -.91305994E+02  d E =-.303500E-01
       N       E                     dE             d eps       ncg     rms          rms(c)
DAV:   1    -0.907289223073E+02    0.57708E+00   -0.47725E+01   148   0.843E+01    0.239E+00
RMM:   2    -0.914056861438E+02   -0.67676E+00   -0.67442E+00   146   0.127E+01    0.358E+00
RMM:   3    -0.915694671035E+02   -0.16378E+00   -0.47742E-01   144   0.308E+00    0.109E+01
RMM:   4    -0.913368035147E+02    0.23266E+00   -0.78073E-02   131   0.152E+00    0.337E+00
RMM:   5    -0.913456032769E+02   -0.87998E-02   -0.17558E-02   132   0.720E-01    0.179E+00
RMM:   6    -0.913446568389E+02    0.94644E-03   -0.96492E-03   130   0.512E-01    0.842E-01
RMM:   7    -0.913436547518E+02    0.10021E-02   -0.58947E-03   127   0.413E-01    0.518E-01
RMM:   8    -0.913440943436E+02   -0.43959E-03   -0.58964E-03   128   0.395E-01    0.454E-01
RMM:   9    -0.913437983886E+02    0.29595E-03   -0.10434E-03   146   0.165E-01    0.164E-01
RMM:  10    -0.913437973041E+02    0.10846E-05   -0.12098E-04   131   0.624E-02    0.111E-01
RMM:  11    -0.913437879218E+02    0.93822E-05   -0.11106E-04   119   0.548E-02    0.538E-02
RMM:  12    -0.913437811627E+02    0.67592E-05   -0.43440E-05    84   0.377E-02
  43 F= -.91343781E+02 E0= -.91343781E+02  d E =-.681366E-01
       N       E                     dE             d eps       ncg     rms          rms(c)
DAV:   1    -0.888741462726E+02    0.24696E+01   -0.19131E+02   148   0.168E+02    0.539E+00
RMM:   2    -0.916779380038E+02   -0.28038E+01   -0.27703E+01   146   0.262E+01    0.811E+00
RMM:   3    -0.923837703052E+02   -0.70583E+00   -0.20785E+00   142   0.661E+00    0.190E+01
RMM:   4    -0.915566827215E+02    0.82709E+00   -0.41607E-01   134   0.323E+00    0.107E+01
RMM:   5    -0.913960130608E+02    0.16067E+00   -0.12480E-01   130   0.173E+00    0.396E+00
RMM:   6    -0.913962922474E+02   -0.27919E-03   -0.49402E-02   131   0.111E+00    0.193E+00
RMM:   7    -0.913936698674E+02    0.26224E-02   -0.20551E-02   134   0.719E-01    0.149E+00
RMM:   8    -0.913936114711E+02    0.58396E-04   -0.22442E-02   130   0.745E-01    0.112E+00
RMM:   9    -0.913927149477E+02    0.89652E-03   -0.12313E-02   129   0.586E-01    0.504E-01
RMM:  10    -0.913925891201E+02    0.12583E-03   -0.12910E-03   151   0.179E-01    0.384E-01
RMM:  11    -0.913923798241E+02    0.20930E-03   -0.40175E-04   133   0.995E-02    0.178E-01
RMM:  12    -0.913924216021E+02   -0.41778E-04   -0.27194E-04   132   0.912E-02    0.668E-02
RMM:  13    -0.913924402086E+02   -0.18607E-04   -0.61751E-05    98   0.434E-02    0.688E-02
RMM:  14    -0.913924373551E+02    0.28535E-05   -0.21977E-05    77   0.245E-02
  44 F= -.91392437E+02 E0= -.91392437E+02  d E =-.116793E+00
       N       E                     dE             d eps       ncg     rms          rms(c)
DAV:   1    -0.809644440345E+02    0.10428E+02   -0.76432E+02   140   0.330E+02    0.214E+01
RMM:   2    -0.943592688251E+02   -0.13395E+02   -0.12943E+02   145   0.585E+01    0.113E+01
RMM:   3    -0.918570042187E+02    0.25023E+01   -0.94220E+00   154   0.161E+01    0.823E+00
RMM:   4    -0.926709433857E+02   -0.81394E+00   -0.12116E+00   140   0.535E+00    0.212E+01
RMM:   5    -0.915582734014E+02    0.11127E+01   -0.32112E-01   135   0.289E+00    0.622E+00
RMM:   6    -0.917204782100E+02   -0.16220E+00   -0.15852E-01   133   0.172E+00    0.116E+01
RMM:   7    -0.914511987128E+02    0.26928E+00   -0.97508E-02   132   0.155E+00    0.435E+00
RMM:   8    -0.914066965631E+02    0.44502E-01   -0.22010E-01   127   0.217E+00    0.451E+00
RMM:   9    -0.913910720962E+02    0.15624E-01   -0.37232E-02   139   0.104E+00    0.198E+00
RMM:  10    -0.913934009614E+02   -0.23289E-02   -0.39786E-02   128   0.880E-01    0.132E+00
RMM:  11    -0.913920914510E+02    0.13095E-02   -0.46847E-03   162   0.321E-01    0.109E+00
RMM:  12    -0.913913164887E+02    0.77496E-03   -0.85669E-03   130   0.391E-01    0.492E-01
RMM:  13    -0.913912729351E+02    0.43554E-04   -0.24510E-03   141   0.197E-01    0.210E-01
RMM:  14    -0.913913268675E+02   -0.53932E-04   -0.32763E-04   135   0.780E-02    0.217E-01
RMM:  15    -0.913913366678E+02   -0.98003E-05   -0.95028E-05   107   0.454E-02
  45 F= -.91391337E+02 E0= -.91391292E+02  d E =-.115692E+00
       N       E                     dE             d eps       ncg     rms          rms(c)
DAV:   1    -0.888461407193E+02    0.25452E+01   -0.19310E+02   148   0.169E+02    0.494E+00
RMM:   2    -0.917023483302E+02   -0.28562E+01   -0.29230E+01   145   0.265E+01    0.279E+00
RMM:   3    -0.920506784487E+02   -0.34833E+00   -0.17799E+00   147   0.621E+00    0.174E+01
RMM:   4    -0.913747278537E+02    0.67595E+00   -0.21283E-01   133   0.242E+00    0.267E+00
RMM:   5    -0.914804271247E+02   -0.10570E+00   -0.79926E-02   128   0.139E+00    0.678E+00
RMM:   6    -0.914063580687E+02    0.74069E-01   -0.31164E-02   134   0.884E-01    0.210E+00
RMM:   7    -0.914074459119E+02   -0.10878E-02   -0.22540E-02   126   0.813E-01    0.994E-01
RMM:   8    -0.914088727076E+02   -0.14268E-02   -0.22183E-02   127   0.793E-01    0.681E-01
RMM:   9    -0.914082004508E+02    0.67226E-03   -0.36164E-03   141   0.286E-01    0.234E-01
RMM:  10    -0.914081645899E+02    0.35861E-04   -0.73187E-04   136   0.131E-01    0.164E-01
RMM:  11    -0.914081358363E+02    0.28754E-04   -0.30494E-04   132   0.921E-02    0.794E-02
RMM:  12    -0.914081279029E+02    0.79335E-05   -0.65208E-05   119   0.403E-02
  46 F= -.91408128E+02 E0= -.91408128E+02  d E =-.132483E+00
       N       E                     dE             d eps       ncg     rms          rms(c)
DAV:   1    -0.911816186257E+02    0.22652E+00   -0.18617E+01   148   0.545E+01    0.155E+00
RMM:   2    -0.914575996704E+02   -0.27598E+00   -0.28223E+00   146   0.831E+00    0.107E+00
RMM:   3    -0.915443954017E+02   -0.86796E-01   -0.19266E-01   144   0.197E+00    0.834E+00
RMM:   4    -0.914176432133E+02    0.12675E+00   -0.33435E-02   128   0.983E-01    0.111E+00
RMM:   5    -0.914417448932E+02   -0.24102E-01   -0.10591E-02   131   0.581E-01    0.206E+00
RMM:   6    -0.914352598897E+02    0.64850E-02   -0.29611E-03   133   0.281E-01    0.710E-01
RMM:   7    -0.914355893950E+02   -0.32951E-03   -0.26951E-03   122   0.304E-01    0.380E-01
RMM:   8    -0.914356675328E+02   -0.78138E-04   -0.23958E-03   129   0.262E-01    0.286E-01
RMM:   9    -0.914355606624E+02    0.10687E-03   -0.35129E-04   142   0.919E-02    0.943E-02
RMM:  10    -0.914355368530E+02    0.23809E-04   -0.52502E-05   102   0.401E-02    0.517E-02
RMM:  11    -0.914355325977E+02    0.42553E-05   -0.41416E-05    83   0.370E-02
  47 F= -.91435533E+02 E0= -.91435533E+02  d E =-.274047E-01
       N       E                     dE             d eps       ncg     rms          rms(c)
DAV:   1    -0.891695839395E+02    0.22660E+01   -0.16840E+02   148   0.163E+02    0.544E+00
RMM:   2    -0.917485960146E+02   -0.25790E+01   -0.26134E+01   145   0.257E+01    0.599E+00
RMM:   3    -0.929460273131E+02   -0.11974E+01   -0.21404E+00   146   0.666E+00    0.232E+01
RMM:   4    -0.914677607362E+02    0.14783E+01   -0.54229E-01   135   0.362E+00    0.411E+00
RMM:   5    -0.916588524263E+02   -0.19109E+00   -0.11910E-01   130   0.166E+00    0.976E+00
RMM:   6    -0.914943801796E+02    0.16447E+00   -0.64901E-02   130   0.131E+00    0.218E+00
RMM:   7    -0.915084834555E+02   -0.14103E-01   -0.19839E-02   129   0.744E-01    0.137E+00
RMM:   8    -0.915128261401E+02   -0.43427E-02   -0.23100E-02   130   0.729E-01    0.208E+00
RMM:   9    -0.915066885238E+02    0.61376E-02   -0.11521E-02   130   0.584E-01    0.307E-01
RMM:  10    -0.915080067701E+02   -0.13182E-02   -0.13146E-03   151   0.188E-01    0.263E-01
RMM:  11    -0.915078792425E+02    0.12753E-03   -0.31810E-04   130   0.912E-02    0.174E-01
RMM:  12    -0.915078824880E+02   -0.32455E-05   -0.20910E-04   135   0.741E-02    0.861E-02
RMM:  13    -0.915078824113E+02    0.76723E-07   -0.67197E-05    99   0.451E-02
  48 F= -.91507882E+02 E0= -.91507882E+02  d E =-.997545E-01
       N       E                     dE             d eps       ncg     rms          rms(c)
DAV:   1    -0.817619559588E+02    0.97459E+01   -0.67686E+02   140   0.320E+02    0.142E+01
RMM:   2    -0.934027517469E+02   -0.11641E+02   -0.11632E+02   144   0.554E+01    0.114E+01
RMM:   3    -0.953958484728E+02   -0.19931E+01   -0.10513E+01   147   0.159E+01    0.278E+01
RMM:   4    -0.916155213124E+02    0.37803E+01   -0.22074E+00   142   0.689E+00    0.696E+00
RMM:   5    -0.922151114096E+02   -0.59959E+00   -0.43910E-01   138   0.311E+00    0.170E+01
RMM:   6    -0.917255956275E+02    0.48952E+00   -0.25189E-01   133   0.240E+00    0.101E+01
RMM:   7    -0.916380580089E+02    0.87538E-01   -0.98998E-02   127   0.143E+00    0.565E+00
RMM:   8    -0.916070188214E+02    0.31039E-01   -0.69358E-02   129   0.128E+00    0.330E+00
RMM:   9    -0.916023119576E+02    0.47069E-02   -0.49886E-02   127   0.106E+00    0.159E+00
RMM:  10    -0.916108719297E+02   -0.85600E-02   -0.43657E-02   130   0.986E-01    0.137E+00
RMM:  11    -0.916076378888E+02    0.32340E-02   -0.16049E-02   138   0.612E-01    0.802E-01
RMM:  12    -0.916065592593E+02    0.10786E-02   -0.17312E-03   151   0.189E-01    0.629E-01
RMM:  13    -0.916058783142E+02    0.68095E-03   -0.12579E-03   134   0.154E-01    0.210E-01
RMM:  14    -0.916060881384E+02   -0.20982E-03   -0.21199E-04   133   0.738E-02    0.233E-01
RMM:  15    -0.916060459094E+02    0.42229E-04   -0.59041E-05   110   0.342E-02    0.120E-01
RMM:  16    -0.916060465216E+02   -0.61220E-06   -0.66808E-05   105   0.329E-02
  49 F= -.91606047E+02 E0= -.91606047E+02  d E =-.197919E+00
       N       E                     dE             d eps       ncg     rms          rms(c)
DAV:   1    -0.471455214925E+02    0.44461E+02   -0.27075E+03   136   0.596E+02    0.284E+01
RMM:   2    -0.105323244614E+03   -0.58178E+02   -0.55465E+02   139   0.123E+02    0.234E+01
RMM:   3    -0.982284255405E+02    0.70948E+01   -0.57302E+01   145   0.383E+01    0.438E+01
RMM:   4    -0.936213227407E+02    0.46071E+01   -0.77617E+00   141   0.135E+01    0.211E+01
RMM:   5    -0.937255213096E+02   -0.10420E+00   -0.41517E+00   133   0.899E+00    0.268E+01
RMM:   6    -0.921240237541E+02    0.16015E+01   -0.15126E+00   136   0.565E+00    0.166E+01
RMM:   7    -0.917446715914E+02    0.37935E+00   -0.37130E-01   146   0.236E+00    0.112E+01
RMM:   8    -0.918329524528E+02   -0.88281E-01   -0.11980E-01   134   0.163E+00    0.135E+01
RMM:   9    -0.915809438280E+02    0.25201E+00   -0.15107E-01   129   0.166E+00    0.665E+00
RMM:  10    -0.915776121204E+02    0.33317E-02   -0.14303E-01   127   0.146E+00    0.524E+00
RMM:  11    -0.915962160247E+02   -0.18604E-01   -0.26336E-01   129   0.201E+00    0.575E+00
RMM:  12    -0.915521989877E+02    0.44017E-01   -0.34137E-02   141   0.843E-01    0.185E+00
RMM:  13    -0.915584976784E+02   -0.62987E-02   -0.23214E-02   133   0.592E-01    0.136E+00
RMM:  14    -0.915579088882E+02    0.58879E-03   -0.48857E-03   133   0.317E-01    0.638E-01
RMM:  15    -0.915585580022E+02   -0.64911E-03   -0.19871E-03   139   0.205E-01    0.549E-01
RMM:  16    -0.915582765798E+02    0.28142E-03   -0.56445E-04   145   0.934E-02    0.265E-01
RMM:  17    -0.915583219186E+02   -0.45339E-04   -0.42363E-04   136   0.863E-02    0.105E-01
RMM:  18    -0.915583549805E+02   -0.33062E-04   -0.87653E-05   120   0.412E-02    0.691E-02
RMM:  19    -0.915583488719E+02    0.61087E-05   -0.14730E-05    73   0.197E-02
  50 F= -.91558349E+02 E0= -.91558349E+02  d E =-.150221E+00
       N       E                     dE             d eps       ncg     rms          rms(c)
DAV:   1    -0.710197102246E+02    0.20539E+02   -0.12897E+03   132   0.430E+02    0.213E+01
RMM:   2    -0.101878285609E+03   -0.30859E+02   -0.23918E+02   145   0.793E+01    0.391E+01
RMM:   3    -0.955630838667E+02    0.63152E+01   -0.20752E+01   139   0.238E+01    0.340E+01
RMM:   4    -0.919532511316E+02    0.36098E+01   -0.34672E+00   140   0.936E+00    0.944E+00
RMM:   5    -0.922198404189E+02   -0.26659E+00   -0.94252E-01   150   0.376E+00    0.169E+01
RMM:   6    -0.917871043554E+02    0.43274E+00   -0.30904E-01   136   0.259E+00    0.106E+01
RMM:   7    -0.918550115936E+02   -0.67907E-01   -0.33657E-01   129   0.260E+00    0.110E+01
RMM:   8    -0.917777456899E+02    0.77266E-01   -0.10983E-01   131   0.156E+00    0.938E+00
RMM:   9    -0.916347018918E+02    0.14304E+00   -0.17599E-01   133   0.185E+00    0.379E+00
RMM:  10    -0.916324103523E+02    0.22915E-02   -0.63679E-02   140   0.103E+00    0.252E+00
RMM:  11    -0.916435413299E+02   -0.11131E-01   -0.55918E-02   129   0.108E+00    0.247E+00
RMM:  12    -0.916347068587E+02    0.88345E-02   -0.19207E-02   135   0.655E-01    0.126E+00
RMM:  13    -0.916334481209E+02    0.12587E-02   -0.36837E-03   143   0.280E-01    0.656E-01
RMM:  14    -0.916330014574E+02    0.44666E-03   -0.95805E-04   141   0.129E-01    0.433E-01
RMM:  15    -0.916327967773E+02    0.20468E-03   -0.43335E-04   138   0.878E-02    0.301E-01
RMM:  16    -0.916326298951E+02    0.16688E-03   -0.20450E-04   127   0.554E-02    0.203E-01
RMM:  17    -0.916324742187E+02    0.15568E-03   -0.16537E-04   120   0.475E-02    0.103E-01
RMM:  18    -0.916324283137E+02    0.45905E-04   -0.66047E-05   100   0.292E-02    0.625E-02
RMM:  19    -0.916323992040E+02    0.29110E-04   -0.36231E-05    84   0.209E-02    0.409E-02
RMM:  20    -0.916323751400E+02    0.24064E-04   -0.30279E-05    83   0.182E-02    0.205E-02
RMM:  21    -0.916323703122E+02    0.48278E-05   -0.10844E-05    73   0.110E-02
  51 F= -.91632370E+02 E0= -.91632370E+02  d E =-.224242E+00
       N       E                     dE             d eps       ncg     rms          rms(c)
DAV:   1    -0.912707409787E+02    0.36163E+00   -0.26190E+01   132   0.648E+01    0.191E+00
RMM:   2    -0.916870944198E+02   -0.41635E+00   -0.40742E+00   145   0.100E+01    0.417E+00
RMM:   3    -0.917463395342E+02   -0.59245E-01   -0.26639E-01   141   0.239E+00    0.898E+00
RMM:   4    -0.916194675642E+02    0.12687E+00   -0.53305E-02   134   0.128E+00    0.248E+00
RMM:   5    -0.916410648545E+02   -0.21597E-01   -0.12623E-02   125   0.611E-01    0.251E+00
RMM:   6    -0.916334372850E+02    0.76276E-02   -0.76613E-03   131   0.468E-01    0.704E-01
RMM:   7    -0.916343981384E+02   -0.96085E-03   -0.48038E-03   125   0.376E-01    0.459E-01
RMM:   8    -0.916344066865E+02   -0.85480E-05   -0.48621E-03   131   0.357E-01    0.394E-01
RMM:   9    -0.916340155781E+02    0.39111E-03   -0.15155E-03   136   0.208E-01    0.262E-01
RMM:  10    -0.916339692172E+02    0.46361E-04   -0.20951E-04   135   0.666E-02    0.809E-02
RMM:  11    -0.916339940991E+02   -0.24882E-04   -0.60014E-05   110   0.436E-02    0.708E-02
RMM:  12    -0.916339887715E+02    0.53276E-05   -0.19134E-05    73   0.256E-02
  52 F= -.91633989E+02 E0= -.91633989E+02  d E =-.225861E+00
       N       E                     dE             d eps       ncg     rms          rms(c)
DAV:   1    -0.915848981766E+02    0.49096E-01   -0.58300E+00   132   0.255E+01    0.180E+00
RMM:   2    -0.922649827501E+02   -0.68008E+00   -0.84972E-01   147   0.471E+00    0.172E+01
RMM:   3    -0.915846760693E+02    0.68031E+00   -0.19972E-01   126   0.228E+00    0.378E+00
RMM:   4    -0.916418533301E+02   -0.57177E-01   -0.45649E-02   132   0.119E+00    0.119E+00
RMM:   5    -0.916403644245E+02    0.14889E-02   -0.55471E-03   144   0.369E-01    0.895E-01
RMM:   6    -0.916428320516E+02   -0.24676E-02   -0.59015E-03   128   0.350E-01    0.139E+00
RMM:   7    -0.916493974327E+02   -0.65654E-02   -0.60074E-03   132   0.337E-01    0.273E+00
RMM:   8    -0.916382373737E+02    0.11160E-01   -0.59645E-03   125   0.402E-01    0.639E-01
