 vasp.5.4.4.18Apr17-6-g9f103f2a35 (build Nov 08 2022 17:27:33) complex          
  
 executed on             LinuxIFC date 2022.11.22  17:13:30
 running on   16 total cores
 distrk:  each k-point on   16 cores,    1 groups
 distr:  one band on NCORES_PER_BAND=   4 cores,    4 groups


--------------------------------------------------------------------------------------------------------


 INCAR:
 POTCAR:    PAW_PBE Mn_pv 02Aug2007               
 POTCAR:    PAW_PBE O 08Apr2002                   
 POTCAR:    PAW_PBE Mn_pv 02Aug2007               
   VRHFIN =Mn: 3p4s3d                                                           
   LEXCH  = PE                                                                  
   EATOM  =  2025.2664 eV,  148.8529 Ry                                         
                                                                                
   TITEL  = PAW_PBE Mn_pv 02Aug2007                                             
   LULTRA =        F    use ultrasoft PP ?                                      
   IUNSCR =        1    unscreen: 0-lin 1-nonlin 2-no                           
   RPACOR =    2.080    partial core radius                                     
   POMASS =   54.938; ZVAL   =   13.000    mass and valenz                      
   RCORE  =    2.300    outmost cutoff radius                                   
   RWIGS  =    2.500; RWIGS  =    1.323    wigner-seitz radius (au A)           
   ENMAX  =  269.864; ENMIN  =  202.398 eV                                      
   ICORE  =        3    local potential                                         
   LCOR   =        T    correct aug charges                                     
   LPAW   =        T    paw PP                                                  
   EAUG   =  569.085                                                            
   DEXC   =    0.000                                                            
   RMAX   =    2.343    core radius for proj-oper                               
   RAUG   =    1.300    factor for augmentation sphere                          
   RDEP   =    2.338    radius for radial grids                                 
   RDEPT  =    1.798    core radius for aug-charge                              
                                                                                
   Atomic configuration                                                         
    8 entries                                                                   
     n  l   j            E        occ.                                          
     1  0  0.50     -6424.8287   2.0000                                         
     2  0  0.50      -739.1154   2.0000                                         
     2  1  1.50      -625.3949   6.0000                                         
     3  0  0.50       -81.6100   2.0000                                         
     3  1  1.50       -50.4667   6.0000                                         
     3  2  2.50        -3.3745   6.0000                                         
     4  0  0.50        -4.1331   1.0000                                         
     4  3  2.50        -1.3606   0.0000                                         
   Description                                                                  
     l       E           TYP  RCUT    TYP  RCUT                                 
     1    -50.4666628     23  2.000                                             
     1     -1.3605826     23  2.000                                             
     2     -3.3744729     23  2.300                                             
     2     -4.7350555     23  2.300                                             
     0     -4.1331431     23  2.300                                             
     0      7.6656591     23  2.300                                             
     3      9.5240782     23  2.300                                             
  local pseudopotential read in
  partial core-charges read in
  partial kinetic energy density read in
  atomic valenz-charges read in
  non local Contribution for L=           1  read in
    real space projection operators read in
  non local Contribution for L=           1  read in
    real space projection operators read in
  non local Contribution for L=           2  read in
    real space projection operators read in
  non local Contribution for L=           2  read in
    real space projection operators read in
  non local Contribution for L=           0  read in
    real space projection operators read in
  non local Contribution for L=           0  read in
    real space projection operators read in
    PAW grid and wavefunctions read in
 
   number of l-projection  operators is LMAX  =           6
   number of lm-projection operators is LMMAX =          18
 
 POTCAR:    PAW_PBE O 08Apr2002                   
   VRHFIN =O: s2p4                                                              
   LEXCH  = PE                                                                  
   EATOM  =   432.3788 eV,   31.7789 Ry                                         
                                                                                
   TITEL  = PAW_PBE O 08Apr2002                                                 
   LULTRA =        F    use ultrasoft PP ?                                      
   IUNSCR =        1    unscreen: 0-lin 1-nonlin 2-no                           
   RPACOR =    1.200    partial core radius                                     
   POMASS =   16.000; ZVAL   =    6.000    mass and valenz                      
   RCORE  =    1.520    outmost cutoff radius                                   
   RWIGS  =    1.550; RWIGS  =    0.820    wigner-seitz radius (au A)           
   ENMAX  =  400.000; ENMIN  =  300.000 eV                                      
   ICORE  =        2    local potential                                         
   LCOR   =        T    correct aug charges                                     
   LPAW   =        T    paw PP                                                  
   EAUG   =  605.392                                                            
   DEXC   =    0.000                                                            
   RMAX   =    1.553    core radius for proj-oper                               
   RAUG   =    1.300    factor for augmentation sphere                          
   RDEP   =    1.550    radius for radial grids                                 
   RDEPT  =    1.329    core radius for aug-charge                              
                                                                                
   Atomic configuration                                                         
    4 entries                                                                   
     n  l   j            E        occ.                                          
     1  0  0.50      -514.6923   2.0000                                         
     2  0  0.50       -23.9615   2.0000                                         
     2  1  0.50        -9.0305   4.0000                                         
     3  2  1.50        -9.5241   0.0000                                         
   Description                                                                  
     l       E           TYP  RCUT    TYP  RCUT                                 
     0    -23.9615318     23  1.200                                             
     0     -9.5240782     23  1.200                                             
     1     -9.0304911     23  1.520                                             
     1      8.1634956     23  1.520                                             
     2     -9.5240782      7  1.500                                             
  local pseudopotential read in
  partial core-charges read in
  partial kinetic energy density read in
  kinetic energy density of atom read in
  atomic valenz-charges read in
  non local Contribution for L=           0  read in
    real space projection operators read in
  non local Contribution for L=           0  read in
    real space projection operators read in
  non local Contribution for L=           1  read in
    real space projection operators read in
  non local Contribution for L=           1  read in
    real space projection operators read in
    PAW grid and wavefunctions read in
 
   number of l-projection  operators is LMAX  =           4
   number of lm-projection operators is LMMAX =           8
 
 Optimization of the real space projectors (new method)

 maximal supplied QI-value         = 16.25
 optimisation between [QCUT,QGAM] = [ 10.24, 20.48] = [ 29.35,117.42] Ry 
 Optimized for a Real-space Cutoff    1.46 Angstroem

   l    n(q)    QCUT    max X(q) W(low)/X(q) W(high)/X(q)  e(spline) 
   1      8    10.239     3.658    0.66E-04    0.10E-03    0.11E-06
   1      8    10.239     5.612    0.11E-03    0.22E-03    0.22E-06
   2      8    10.239    55.373    0.13E-03    0.13E-03    0.98E-07
   2      8    10.239    50.863    0.13E-03    0.13E-03    0.10E-06
   0      9    10.239    79.536    0.48E-04    0.67E-04    0.69E-07
   0      9    10.239    38.668    0.40E-04    0.61E-04    0.64E-07
 Optimization of the real space projectors (new method)

 maximal supplied QI-value         = 24.76
 optimisation between [QCUT,QGAM] = [ 10.15, 20.30] = [ 28.85,115.39] Ry 
 Optimized for a Real-space Cutoff    1.51 Angstroem

   l    n(q)    QCUT    max X(q) W(low)/X(q) W(high)/X(q)  e(spline) 
   0      9    10.150    20.381    0.17E-03    0.18E-03    0.41E-06
   0      9    10.150    15.268    0.18E-03    0.20E-03    0.43E-06
   1      9    10.150     5.964    0.16E-03    0.20E-03    0.36E-06
   1      9    10.150     5.382    0.13E-03    0.16E-03    0.33E-06
  PAW_PBE Mn_pv 02Aug2007               :
 energy of atom  1       EATOM=-2025.2664
 kinetic energy error for atom=    0.0284 (will be added to EATOM!!)
  PAW_PBE O 08Apr2002                   :
 energy of atom  2       EATOM= -432.3788
 kinetic energy error for atom=    0.1156 (will be added to EATOM!!)
 
 
 POSCAR: Mn4 O8                                  
  positions in direct lattice
  No initial velocities read in
 exchange correlation table for  LEXCH =        8
   RHO(1)=    0.500       N(1)  =     2000
   RHO(2)=  100.500       N(2)  =     4000

 VTST: version 3.2, (02/03/18)

 CHAIN: initializing optimizer
 
 OPT: Using VASP Conjugate-Gradient optimizer
 CHAIN: Read ICHAIN            0
 
 POSCAR: Mn4 O8                                  
  positions in direct lattice
  No initial velocities read in
 


--------------------------------------------------------------------------------------------------------


 ion  position               nearest neighbor table
   1  0.250  0.021  0.865-  12 1.91  12 1.91  10 1.92   6 1.94   6 1.94   7 1.94   2 2.94   2 2.94

   2  0.750  0.979  0.135-   9 1.91   9 1.91  11 1.92   7 1.94   7 1.94   6 1.94   1 2.94   1 2.94

   3  0.750  0.521  0.635-  10 1.91  10 1.91  12 1.92   5 1.94   5 1.94   8 1.94   4 2.94   4 2.94

   4  0.250  0.479  0.365-  11 1.91  11 1.91   9 1.92   8 1.94   8 1.94   5 1.94   3 2.94   3 2.94

   5  0.250  0.712  0.537-   3 1.94   3 1.94   4 1.94
   6  0.750  0.212  0.963-   1 1.94   1 1.94   2 1.94
   7  0.250  0.788  0.037-   2 1.94   2 1.94   1 1.94
   8  0.750  0.288  0.463-   4 1.94   4 1.94   3 1.94
   9  0.250  0.191  0.216-   2 1.91   2 1.91   4 1.92
  10  0.250  0.309  0.716-   3 1.91   3 1.91   1 1.92
  11  0.750  0.691  0.284-   4 1.91   4 1.91   2 1.92
  12  0.750  0.809  0.784-   1 1.91   1 1.91   3 1.92
 

IMPORTANT INFORMATION: All symmetrisations will be switched off!
NOSYMM: (Re-)initialisation of all symmetry stuff for point group C_1.

 
 
 KPOINTS: Default gamma                           

Automatic generation of k-mesh.
Space group operators:
 irot       det(A)        alpha          n_x          n_y          n_z        tau_x        tau_y        tau_z
    1     1.000000     0.000000     1.000000     0.000000     0.000000     0.000000     0.000000     0.000000
 
 Subroutine IBZKPT returns following result:
 ===========================================
 
 Found      1 irreducible k-points:
 
 Following reciprocal coordinates:
            Coordinates               Weight
  0.000000  0.000000  0.000000      1.000000
 
 Following cartesian coordinates:
            Coordinates               Weight
  0.000000  0.000000  0.000000      1.000000
 


--------------------------------------------------------------------------------------------------------




 Dimension of arrays:
   k-points           NKPTS =      1   k-points in BZ     NKDIM =      1   number of bands    NBANDS=     60
   number of dos      NEDOS =    301   number of ions     NIONS =     12
   non local maximal  LDIM  =      6   non local SUM 2l+1 LMDIM =     18
   total plane-waves  NPLWV =  38400
   max r-space proj   IRMAX =   4431   max aug-charges    IRDMAX=   9443
   dimension x,y,z NGX =    20 NGY =   30 NGZ =   64
   dimension x,y,z NGXF=    40 NGYF=   60 NGZF=  128
   support grid    NGXF=    40 NGYF=   60 NGZF=  128
   ions per type =               4   8
   NGX,Y,Z   is equivalent  to a cutoff of  11.40, 10.89, 11.28 a.u.
   NGXF,Y,Z  is equivalent  to a cutoff of  22.80, 21.77, 22.56 a.u.

 SYSTEM =  unknown system                          
 POSCAR =  Mn4 O8                                  

 Startparameter for this run:
   NWRITE =      2    write-flag & timer
   PREC   = accura    normal or accurate (medium, high low for compatibility)
   ISTART =      0    job   : 0-new  1-cont  2-samecut
   ICHARG =      2    charge: 1-file 2-atom 10-const
   ISPIN  =      1    spin polarized calculation?
   LNONCOLLINEAR =      F non collinear calculations
   LSORBIT =      F    spin-orbit coupling
   INIWAV =      1    electr: 0-lowe 1-rand  2-diag
   LASPH  =      T    aspherical Exc in radial PAW
   METAGGA=      F    non-selfconsistent MetaGGA calc.

 Electronic Relaxation 1
   ENCUT  =  400.0 eV  29.40 Ry    5.42 a.u.   4.76  7.47 15.39*2*pi/ulx,y,z
   ENINI  =  400.0     initial cutoff
   ENAUG  =  800.0 eV  augmentation charge cutoff
   NELM   =     40;   NELMIN=  2; NELMDL= -5     # of ELM steps 
   EDIFF  = 0.1E-04   stopping-criterion for ELM
   LREAL  =      T    real-space projection
   NLSPLINE    = F    spline interpolate recip. space projectors
   LCOMPAT=      F    compatible to vasp.4.4
   GGA_COMPAT  = T    GGA compatible to vasp.4.4-vasp.4.6
   LMAXPAW     = -100 max onsite density
   LMAXMIX     =    4 max onsite mixed and CHGCAR
   VOSKOWN=      0    Vosko Wilk Nusair interpolation
   ROPT   =   -0.00025  -0.00025
 Ionic relaxation
   EDIFFG = -.3E-01   stopping-criterion for IOM
   NSW    =    199    number of steps for IOM
   NBLOCK =      1;   KBLOCK =    199    inner block; outer block 
   IBRION =      2    ionic relax: 0-MD 1-quasi-New 2-CG
   NFREE  =      1    steps in history (QN), initial steepest desc. (CG)
   ISIF   =      2    stress and relaxation
   IWAVPR =     11    prediction:  0-non 1-charg 2-wave 3-comb
   ISYM   =      0    0-nonsym 1-usesym 2-fastsym
   LCORR  =      T    Harris-Foulkes like correction to forces

   POTIM  = 0.5000    time-step for ionic-motion
   TEIN   =    0.0    initial temperature
   TEBEG  =    0.0;   TEEND  =   0.0 temperature during run
   SMASS  =  -3.00    Nose mass-parameter (am)
   estimated Nose-frequenzy (Omega)   =  0.10E-29 period in steps =****** mass=  -0.194E-27a.u.
   SCALEE = 1.0000    scale energy and forces
   NPACO  =    256;   APACO  = 16.0  distance and # of slots for P.C.
   PSTRESS=    0.0 pullay stress

  Mass of Ions in am
   POMASS =  54.94 16.00
  Ionic Valenz
   ZVAL   =  13.00  6.00
  Atomic Wigner-Seitz radii
   RWIGS  =  -1.00 -1.00
  virtual crystal weights 
   VCA    =   1.00  1.00
   NELECT =     100.0000    total number of electrons
   NUPDOWN=      -1.0000    fix difference up-down

 DOS related values:
   EMIN   =  10.00;   EMAX   =-10.00  energy-range for DOS
   EFERMI =   0.00
   ISMEAR =     0;   SIGMA  =   0.01  broadening in eV -4-tet -1-fermi 0-gaus

 Electronic relaxation 2 (details)
   IALGO  =     68    algorithm
   LDIAG  =      T    sub-space diagonalisation (order eigenvalues)
   LSUBROT=      F    optimize rotation matrix (better conditioning)
   TURBO    =      0    0=normal 1=particle mesh
   IRESTART =      0    0=no restart 2=restart with 2 vectors
   NREBOOT  =      0    no. of reboots
   NMIN     =      0    reboot dimension
   EREF     =   0.00    reference energy to select bands
   IMIX   =      4    mixing-type and parameters
     AMIX     =   0.40;   BMIX     =  1.00
     AMIX_MAG =   1.60;   BMIX_MAG =  1.00
     AMIN     =   0.10
     WC   =   100.;   INIMIX=   1;  MIXPRE=   1;  MAXMIX= -45

 Intra band minimization:
   WEIMIN = 0.0010     energy-eigenvalue tresh-hold
   EBREAK =  0.42E-07  absolut break condition
   DEPER  =   0.30     relativ break condition  

   TIME   =   0.40     timestep for ELM

  volume/ion in A,a.u.               =      10.50        70.88
  Fermi-wavevector in a.u.,A,eV,Ry     =   1.515557  2.863987 31.251390  2.296912
  Thomas-Fermi vector in A             =   2.625065
 
 Write flags
   LWAVE        =      T    write WAVECAR
   LDOWNSAMPLE  =      F    k-point downsampling of WAVECAR
   LCHARG       =      T    write CHGCAR
   LVTOT        =      F    write LOCPOT, total local potential
   LVHAR        =      F    write LOCPOT, Hartree potential only
   LELF         =      F    write electronic localiz. function (ELF)
   LORBIT       =     11    0 simple, 1 ext, 2 COOP (PROOUT), +10 PAW based schemes


 Dipole corrections
   LMONO  =      F    monopole corrections only (constant potential shift)
   LDIPOL =      F    correct potential (dipole corrections)
   IDIPOL =      0    1-x, 2-y, 3-z, 4-all directions 
   EPSILON=  1.0000000 bulk dielectric constant

 Exchange correlation treatment:
   GGA     =    PE    GGA type
   LEXCH   =     8    internal setting for exchange type
   VOSKOWN=      0    Vosko Wilk Nusair interpolation
   LHFCALC =     F    Hartree Fock is set to
   LHFONE  =     F    Hartree Fock one center treatment
   AEXX    =    0.0000 exact exchange contribution

 Linear response parameters
   LEPSILON=     F    determine dielectric tensor
   LRPA    =     F    only Hartree local field effects (RPA)
   LNABLA  =     F    use nabla operator in PAW spheres
   LVEL    =     F    velocity operator in full k-point grid
   LINTERFAST=   F  fast interpolation
   KINTER  =     0    interpolate to denser k-point grid
   CSHIFT  =0.1000    complex shift for real part using Kramers Kronig
   OMEGAMAX=  -1.0    maximum frequency
   DEG_THRESHOLD= 0.2000000E-02 threshold for treating states as degnerate
   RTIME   =   -0.100 relaxation time in fs
  (WPLASMAI=    0.000 imaginary part of plasma frequency in eV, 0.658/RTIME)
   DFIELD  = 0.0000000 0.0000000 0.0000000 field for delta impulse in time
 
 Orbital magnetization related:
   ORBITALMAG=     F  switch on orbital magnetization
   LCHIMAG   =     F  perturbation theory with respect to B field
   DQ        =  0.001000  dq finite difference perturbation B field
   LLRAUG    =     F  two centre corrections for induced B field



--------------------------------------------------------------------------------------------------------


 conjugate gradient relaxation of ions
 charge density and potential will be updated during run
 non-spin polarized calculation
 RMM-DIIS sequential band-by-band and
  variant of blocked Davidson during initial phase
 perform sub-space diagonalisation
    before iterative eigenvector-optimisation
 modified Broyden-mixing scheme, WC =      100.0
 initial mixing is a Kerker type mixing with AMIX =  0.4000 and BMIX =      1.0000
 Hartree-type preconditioning will be used
 using additional bands           10
 real space projection scheme for non local part
 use partial core corrections
 calculate Harris-corrections to forces 
   (improved forces if not selfconsistent)
 use gradient corrections 
 use of overlap-Matrix (Vanderbilt PP)
 Gauss-broadening in eV      SIGMA  =   0.01


--------------------------------------------------------------------------------------------------------


  energy-cutoff  :      400.00
  volume of cell :      126.04
      direct lattice vectors                 reciprocal lattice vectors
     2.916331000  0.000000000  0.000000000     0.342896605  0.000000075 -0.000000073
    -0.000001000  4.580966000  0.000145000     0.000000000  0.218294570 -0.000006941
     0.000002000  0.000300000  9.434393000     0.000000000 -0.000003355  0.105995161

  length of vectors
     2.916331000  4.580966002  9.434393005     0.342896605  0.218294570  0.105995161


 
 k-points in units of 2pi/SCALE and weight: Default gamma                           
   0.00000000  0.00000000  0.00000000       1.000
 
 k-points in reciprocal lattice and weights: Default gamma                           
   0.00000000  0.00000000  0.00000000       1.000
 
 position of ions in fractional coordinates (direct lattice) 
   0.25000000  0.02126500  0.86501400
   0.74999900  0.97874100  0.13499200
   0.75000000  0.52131000  0.63496800
   0.25000100  0.47868900  0.36502400
   0.25000000  0.71244700  0.53693000
   0.75000000  0.21232300  0.96305200
   0.25000000  0.78767800  0.03695300
   0.75000000  0.28755100  0.46306600
   0.25000000  0.19132200  0.21631000
   0.25000000  0.30854000  0.71624800
   0.75000000  0.69145800  0.28375200
   0.75000000  0.80867700  0.78369200
 
 position of ions in cartesian coordinates  (Angst):
   0.72908446  0.09767375  8.16088511
   2.18724462  4.48361974  1.27370950
   2.18724900  2.38829388  5.99061324
   0.72908592  2.19296754  3.44384928
   0.72908311  3.26385656  5.06571194
   2.18724996  0.97293336  9.08584183
   0.72908204  3.60833722  0.34874334
   2.18724889  1.31740027  4.36878832
   0.72908299  0.87650447  2.04078129
   0.72908387  1.41362612  6.75740986
   2.18724813  3.16763071  2.67712814
   2.18724901  3.70475695  7.39377558
 


--------------------------------------------------------------------------------------------------------


 k-point  1 :   0.0000 0.0000 0.0000  plane waves:    2297

 maximum and minimum number of plane-waves per node :       576      573

 maximum number of plane-waves:      2297
 maximum index in each direction: 
   IXMAX=    4   IYMAX=    7   IZMAX=   15
   IXMIN=   -4   IYMIN=   -7   IZMIN=  -15


 real space projection operators:
  total allocation   :       4311.56 KBytes
  max/ min on nodes  :       1082.62       1073.16


 parallel 3D FFT for wavefunctions:
    minimum data exchange during FFTs selected (reduces bandwidth)
 parallel 3D FFT for charge:
    minimum data exchange during FFTs selected (reduces bandwidth)


 total amount of memory used by VASP MPI-rank0    35155. kBytes
=======================================================================

   base      :      30000. kBytes
   nonlr-proj:       2229. kBytes
   fftplans  :       1043. kBytes
   grid      :       1691. kBytes
   one-center:         46. kBytes
   wavefun   :        146. kBytes
 
     INWAV:  cpu time    0.0000: real time    0.0000
 Broyden mixing: mesh for mixing (old mesh)
   NGX =  9   NGY = 15   NGZ = 31
  (NGX  = 40   NGY  = 60   NGZ  =128)
  gives a total of   4185 points

 initial charge density was supplied:
 charge density of overlapping atoms calculated
 number of electron     100.0000000 magnetization 
 keeping initial charge density in first step


--------------------------------------------------------------------------------------------------------


 Maximum index for non-local projection operator         1072
 Maximum index for augmentation-charges          717 (set IRDMAX)


--------------------------------------------------------------------------------------------------------


 First call to EWALD:  gamma=   0.354
 Maximum number of real-space cells 4x 3x 2
 Maximum number of reciprocal cells 2x 3x 5

    FEWALD:  cpu time    0.0016: real time    0.0016


--------------------------------------- Iteration      1(   1)  ---------------------------------------


    POTLOK:  cpu time    0.0334: real time    0.0403
    SETDIJ:  cpu time    0.1602: real time    0.1604
     EDDAV:  cpu time    0.0970: real time    0.1690
       DOS:  cpu time    0.0003: real time    0.0003
    --------------------------------------------
      LOOP:  cpu time    0.2908: real time    0.3700

 eigenvalue-minimisations  :   120
 total energy-change (2. order) : 0.1260553E+04  (-0.4885279E+04)
 number of electron     100.0000000 magnetization 
 augmentation part      100.0000000 magnetization 

 Free energy of the ion-electron system (eV)
  ---------------------------------------------------
  alpha Z        PSCENC =       441.37612112
  Ewald energy   TEWEN  =     -7485.64291034
  -Hartree energ DENC   =     -3708.68415669
  -exchange      EXHF   =         0.00000000
  -V(xc)+E(xc)   XCENC  =       495.40746094
  PAW double counting   =      9357.60403054    -9574.99295777
  entropy T*S    EENTRO =        -0.00000000
  eigenvalues    EBANDS =       176.42760967
  atomic energy  EATOM  =     11559.05757976
  Solvation  Ediel_sol  =         0.00000000
  ---------------------------------------------------
  free energy    TOTEN  =      1260.55277723 eV

  energy without entropy =     1260.55277723  energy(sigma->0) =     1260.55277723


--------------------------------------------------------------------------------------------------------




--------------------------------------- Iteration      1(   2)  ---------------------------------------


     EDDAV:  cpu time    0.1213: real time    0.1226
       DOS:  cpu time    0.0002: real time    0.0002
    --------------------------------------------
      LOOP:  cpu time    0.1215: real time    0.1228

 eigenvalue-minimisations  :   124
 total energy-change (2. order) :-0.1185166E+04  (-0.1124657E+04)
 number of electron     100.0000000 magnetization 
 augmentation part      100.0000000 magnetization 

 Free energy of the ion-electron system (eV)
  ---------------------------------------------------
  alpha Z        PSCENC =       441.37612112
  Ewald energy   TEWEN  =     -7485.64291034
  -Hartree energ DENC   =     -3708.68415669
  -exchange      EXHF   =         0.00000000
  -V(xc)+E(xc)   XCENC  =       495.40746094
  PAW double counting   =      9357.60403054    -9574.99295777
  entropy T*S    EENTRO =        -0.00000000
  eigenvalues    EBANDS =     -1008.73812508
  atomic energy  EATOM  =     11559.05757976
  Solvation  Ediel_sol  =         0.00000000
  ---------------------------------------------------
  free energy    TOTEN  =        75.38704249 eV

  energy without entropy =       75.38704249  energy(sigma->0) =       75.38704249


--------------------------------------------------------------------------------------------------------




--------------------------------------- Iteration      1(   3)  ---------------------------------------


     EDDAV:  cpu time    0.1084: real time    0.1088
       DOS:  cpu time    0.0003: real time    0.0003
    --------------------------------------------
      LOOP:  cpu time    0.1087: real time    0.1091

 eigenvalue-minimisations  :   136
 total energy-change (2. order) :-0.1880370E+03  (-0.1790735E+03)
 number of electron     100.0000000 magnetization 
 augmentation part      100.0000000 magnetization 

 Free energy of the ion-electron system (eV)
  ---------------------------------------------------
  alpha Z        PSCENC =       441.37612112
  Ewald energy   TEWEN  =     -7485.64291034
  -Hartree energ DENC   =     -3708.68415669
  -exchange      EXHF   =         0.00000000
  -V(xc)+E(xc)   XCENC  =       495.40746094
  PAW double counting   =      9357.60403054    -9574.99295777
  entropy T*S    EENTRO =        -0.00000000
  eigenvalues    EBANDS =     -1196.77512365
  atomic energy  EATOM  =     11559.05757976
  Solvation  Ediel_sol  =         0.00000000
  ---------------------------------------------------
  free energy    TOTEN  =      -112.64995609 eV

  energy without entropy =     -112.64995609  energy(sigma->0) =     -112.64995609


--------------------------------------------------------------------------------------------------------




--------------------------------------- Iteration      1(   4)  ---------------------------------------


     EDDAV:  cpu time    0.0779: real time    0.1278
       DOS:  cpu time    0.0004: real time    0.0007
    --------------------------------------------
      LOOP:  cpu time    0.0783: real time    0.1284

 eigenvalue-minimisations  :   144
 total energy-change (2. order) :-0.8353611E+01  (-0.8177776E+01)
 number of electron     100.0000000 magnetization 
 augmentation part      100.0000000 magnetization 

 Free energy of the ion-electron system (eV)
  ---------------------------------------------------
  alpha Z        PSCENC =       441.37612112
  Ewald energy   TEWEN  =     -7485.64291034
  -Hartree energ DENC   =     -3708.68415669
  -exchange      EXHF   =         0.00000000
  -V(xc)+E(xc)   XCENC  =       495.40746094
  PAW double counting   =      9357.60403054    -9574.99295777
  entropy T*S    EENTRO =        -0.00307178
  eigenvalues    EBANDS =     -1205.12566289
  atomic energy  EATOM  =     11559.05757976
  Solvation  Ediel_sol  =         0.00000000
  ---------------------------------------------------
  free energy    TOTEN  =      -121.00356711 eV

  energy without entropy =     -121.00049532  energy(sigma->0) =     -121.00203121


--------------------------------------------------------------------------------------------------------




--------------------------------------- Iteration      1(   5)  ---------------------------------------


     EDDAV:  cpu time    0.0694: real time    0.1396
       DOS:  cpu time    0.0004: real time    0.0024
    CHARGE:  cpu time    0.0034: real time    0.0051
    MIXING:  cpu time    0.0004: real time    0.0011
    --------------------------------------------
      LOOP:  cpu time    0.0737: real time    0.1483

 eigenvalue-minimisations  :   144
 total energy-change (2. order) :-0.2362659E+00  (-0.2251318E+00)
 number of electron     100.0000031 magnetization 
 augmentation part       30.7647358 magnetization 

 Broyden mixing:
  rms(total) = 0.58322E+01    rms(broyden)= 0.58279E+01
  rms(prec ) = 0.70901E+01
  weight for this iteration     100.00

 Free energy of the ion-electron system (eV)
  ---------------------------------------------------
  alpha Z        PSCENC =       441.37612112
  Ewald energy   TEWEN  =     -7485.64291034
  -Hartree energ DENC   =     -3708.68415669
  -exchange      EXHF   =         0.00000000
  -V(xc)+E(xc)   XCENC  =       495.40746094
  PAW double counting   =      9357.60403054    -9574.99295777
  entropy T*S    EENTRO =        -0.01096984
  eigenvalues    EBANDS =     -1205.35403072
  atomic energy  EATOM  =     11559.05757976
  Solvation  Ediel_sol  =         0.00000000
  ---------------------------------------------------
  free energy    TOTEN  =      -121.23983299 eV

  energy without entropy =     -121.22886315  energy(sigma->0) =     -121.23434807


--------------------------------------------------------------------------------------------------------




--------------------------------------- Iteration      1(   6)  ---------------------------------------


    POTLOK:  cpu time    0.0126: real time    0.0255
    SETDIJ:  cpu time    0.0847: real time    0.1600
    EDDIAG:  cpu time    0.0092: real time    0.0176
  RMM-DIIS:  cpu time    0.0317: real time    0.0632
    ORTHCH:  cpu time    0.0019: real time    0.0037
       DOS:  cpu time    0.0002: real time    0.0022
    CHARGE:  cpu time    0.0034: real time    0.0046
    MIXING:  cpu time    0.0010: real time    0.0035
    --------------------------------------------
      LOOP:  cpu time    0.1445: real time    0.2802

 eigenvalue-minimisations  :   150
 total energy-change (2. order) :-0.3423679E+02  (-0.5935275E+02)
 number of electron     100.0000052 magnetization 
 augmentation part       42.7847828 magnetization 

 Broyden mixing:
  rms(total) = 0.10309E+02    rms(broyden)= 0.10306E+02
  rms(prec ) = 0.12970E+02
  weight for this iteration     100.00

 eigenvalues of (default mixing * dielectric matrix)
  average eigenvalue GAMMA=   0.2871
  0.2871

 Free energy of the ion-electron system (eV)
  ---------------------------------------------------
  alpha Z        PSCENC =       441.37612112
  Ewald energy   TEWEN  =     -7485.64291034
  -Hartree energ DENC   =     -3506.66675646
  -exchange      EXHF   =         0.00000000
  -V(xc)+E(xc)   XCENC  =       493.35773581
  PAW double counting   =      9964.89805287   -10174.72133890
  entropy T*S    EENTRO =        -0.00000000
  eigenvalues    EBANDS =     -1447.13511149
  atomic energy  EATOM  =     11559.05757976
  Solvation  Ediel_sol  =         0.00000000
  ---------------------------------------------------
  free energy    TOTEN  =      -155.47662763 eV

  energy without entropy =     -155.47662763  energy(sigma->0) =     -155.47662763


--------------------------------------------------------------------------------------------------------




--------------------------------------- Iteration      1(   7)  ---------------------------------------


    POTLOK:  cpu time    0.0140: real time    0.0255
    SETDIJ:  cpu time    0.0809: real time    0.1651
    EDDIAG:  cpu time    0.0089: real time    0.0179
  RMM-DIIS:  cpu time    0.0448: real time    0.0819
    ORTHCH:  cpu time    0.0028: real time    0.0058
       DOS:  cpu time    0.0007: real time    0.0033
    CHARGE:  cpu time    0.0064: real time    0.0106
    MIXING:  cpu time    0.0012: real time    0.0029
    --------------------------------------------
      LOOP:  cpu time    0.1599: real time    0.3130

 eigenvalue-minimisations  :   131
 total energy-change (2. order) : 0.6714703E+02  (-0.1895129E+02)
 number of electron     100.0000012 magnetization 
 augmentation part       33.0444084 magnetization 

 Broyden mixing:
  rms(total) = 0.23375E+01    rms(broyden)= 0.23287E+01
  rms(prec ) = 0.36497E+01
  weight for this iteration     100.00

 eigenvalues of (default mixing * dielectric matrix)
  average eigenvalue GAMMA=   0.6357
  0.9794  0.2920

 Free energy of the ion-electron system (eV)
  ---------------------------------------------------
  alpha Z        PSCENC =       441.37612112
  Ewald energy   TEWEN  =     -7485.64291034
  -Hartree energ DENC   =     -3666.36723003
  -exchange      EXHF   =         0.00000000
  -V(xc)+E(xc)   XCENC  =       496.79274163
  PAW double counting   =     10699.98568961   -10924.08738726
  entropy T*S    EENTRO =        -0.00019906
  eigenvalues    EBANDS =     -1209.44400589
  atomic energy  EATOM  =     11559.05757976
  Solvation  Ediel_sol  =         0.00000000
  ---------------------------------------------------
  free energy    TOTEN  =       -88.32960047 eV

  energy without entropy =      -88.32940141  energy(sigma->0) =      -88.32950094


--------------------------------------------------------------------------------------------------------




--------------------------------------- Iteration      1(   8)  ---------------------------------------


    POTLOK:  cpu time    0.0209: real time    0.0278
    SETDIJ:  cpu time    0.2049: real time    0.2053
    EDDIAG:  cpu time    0.0202: real time    0.0202
  RMM-DIIS:  cpu time    0.0867: real time    0.0872
    ORTHCH:  cpu time    0.0033: real time    0.0033
       DOS:  cpu time    0.0001: real time    0.0001
    CHARGE:  cpu time    0.0055: real time    0.0055
    MIXING:  cpu time    0.0010: real time    0.0010
    --------------------------------------------
      LOOP:  cpu time    0.3424: real time    0.3504

 eigenvalue-minimisations  :   144
 total energy-change (2. order) :-0.4470407E+02  (-0.5693229E+01)
 number of electron     100.0000018 magnetization 
 augmentation part       33.4034423 magnetization 

 Broyden mixing:
  rms(total) = 0.62089E+01    rms(broyden)= 0.62040E+01
  rms(prec ) = 0.99756E+01
  weight for this iteration     100.00

 eigenvalues of (default mixing * dielectric matrix)
  average eigenvalue GAMMA=   0.5812
  1.3032  0.2925  0.1480

 Free energy of the ion-electron system (eV)
  ---------------------------------------------------
  alpha Z        PSCENC =       441.37612112
  Ewald energy   TEWEN  =     -7485.64291034
  -Hartree energ DENC   =     -3649.22203082
  -exchange      EXHF   =         0.00000000
  -V(xc)+E(xc)   XCENC  =       496.06630844
  PAW double counting   =     11005.13613472   -11230.04628375
  entropy T*S    EENTRO =        -0.00000000
  eigenvalues    EBANDS =     -1269.75858950
  atomic energy  EATOM  =     11559.05757976
  Solvation  Ediel_sol  =         0.00000000
  ---------------------------------------------------
  free energy    TOTEN  =      -133.03367037 eV

  energy without entropy =     -133.03367037  energy(sigma->0) =     -133.03367037


--------------------------------------------------------------------------------------------------------




--------------------------------------- Iteration      1(   9)  ---------------------------------------


    POTLOK:  cpu time    0.0197: real time    0.0197
    SETDIJ:  cpu time    0.1913: real time    0.1917
    EDDIAG:  cpu time    0.0159: real time    0.0159
  RMM-DIIS:  cpu time    0.0715: real time    0.0718
    ORTHCH:  cpu time    0.0026: real time    0.0026
       DOS:  cpu time    0.0003: real time    0.0003
    CHARGE:  cpu time    0.0063: real time    0.0063
    MIXING:  cpu time    0.0011: real time    0.0011
    --------------------------------------------
      LOOP:  cpu time    0.3087: real time    0.3094

 eigenvalue-minimisations  :   136
 total energy-change (2. order) : 0.3716767E+02  (-0.2129484E+01)
 number of electron     100.0000025 magnetization 
 augmentation part       33.2795078 magnetization 

 Broyden mixing:
  rms(total) = 0.35606E+01    rms(broyden)= 0.35567E+01
  rms(prec ) = 0.54755E+01
  weight for this iteration     100.00

 eigenvalues of (default mixing * dielectric matrix)
  average eigenvalue GAMMA=   0.4910
  1.3227  0.2879  0.1767  0.1767

 Free energy of the ion-electron system (eV)
  ---------------------------------------------------
  alpha Z        PSCENC =       441.37612112
  Ewald energy   TEWEN  =     -7485.64291034
  -Hartree energ DENC   =     -3630.15646813
  -exchange      EXHF   =         0.00000000
  -V(xc)+E(xc)   XCENC  =       495.70525007
  PAW double counting   =     11346.98670885   -11573.86485797
  entropy T*S    EENTRO =        -0.00000000
  eigenvalues    EBANDS =     -1249.32742251
  atomic energy  EATOM  =     11559.05757976
  Solvation  Ediel_sol  =         0.00000000
  ---------------------------------------------------
  free energy    TOTEN  =       -95.86599915 eV

  energy without entropy =      -95.86599915  energy(sigma->0) =      -95.86599915


--------------------------------------------------------------------------------------------------------




--------------------------------------- Iteration      1(  10)  ---------------------------------------


    POTLOK:  cpu time    0.0210: real time    0.0212
    SETDIJ:  cpu time    0.1589: real time    0.1593
    EDDIAG:  cpu time    0.0129: real time    0.0130
  RMM-DIIS:  cpu time    0.0491: real time    0.0494
    ORTHCH:  cpu time    0.0021: real time    0.0021
       DOS:  cpu time    0.0002: real time    0.0002
    CHARGE:  cpu time    0.0044: real time    0.0044
    MIXING:  cpu time    0.0009: real time    0.0009
    --------------------------------------------
      LOOP:  cpu time    0.2494: real time    0.2504

 eigenvalue-minimisations  :   139
 total energy-change (2. order) : 0.3519315E+01  (-0.6800381E+00)
 number of electron     100.0000026 magnetization 
 augmentation part       33.3462397 magnetization 

 Broyden mixing:
  rms(total) = 0.32328E+01    rms(broyden)= 0.32272E+01
  rms(prec ) = 0.55100E+01
  weight for this iteration     100.00

 eigenvalues of (default mixing * dielectric matrix)
  average eigenvalue GAMMA=   0.4665
  1.2660  0.3675  0.3675  0.2328  0.0987

 Free energy of the ion-electron system (eV)
  ---------------------------------------------------
  alpha Z        PSCENC =       441.37612112
  Ewald energy   TEWEN  =     -7485.64291034
  -Hartree energ DENC   =     -3627.14023958
  -exchange      EXHF   =         0.00000000
  -V(xc)+E(xc)   XCENC  =       495.60981912
  PAW double counting   =     11379.63017555   -11606.67794922
  entropy T*S    EENTRO =        -0.00000000
  eigenvalues    EBANDS =     -1248.55928048
  atomic energy  EATOM  =     11559.05757976
  Solvation  Ediel_sol  =         0.00000000
  ---------------------------------------------------
  free energy    TOTEN  =       -92.34668406 eV

  energy without entropy =      -92.34668406  energy(sigma->0) =      -92.34668406


--------------------------------------------------------------------------------------------------------




--------------------------------------- Iteration      1(  11)  ---------------------------------------


    POTLOK:  cpu time    0.0178: real time    0.0179
    SETDIJ:  cpu time    0.1520: real time    0.1576
    EDDIAG:  cpu time    0.0145: real time    0.0148
  RMM-DIIS:  cpu time    0.0312: real time    0.0348
    ORTHCH:  cpu time    0.0015: real time    0.0015
       DOS:  cpu time    0.0001: real time    0.0001
    CHARGE:  cpu time    0.0033: real time    0.0033
    MIXING:  cpu time    0.0007: real time    0.0007
    --------------------------------------------
      LOOP:  cpu time    0.2211: real time    0.2307

 eigenvalue-minimisations  :   143
 total energy-change (2. order) : 0.2453279E+01  (-0.3967104E+00)
 number of electron     100.0000023 magnetization 
 augmentation part       33.4873557 magnetization 

 Broyden mixing:
  rms(total) = 0.31826E+01    rms(broyden)= 0.31759E+01
  rms(prec ) = 0.53120E+01
  weight for this iteration     100.00

 eigenvalues of (default mixing * dielectric matrix)
  average eigenvalue GAMMA=   0.4126
  1.2739  0.4876  0.3246  0.2115  0.0889  0.0889

 Free energy of the ion-electron system (eV)
  ---------------------------------------------------
  alpha Z        PSCENC =       441.37612112
  Ewald energy   TEWEN  =     -7485.64291034
  -Hartree energ DENC   =     -3622.84932997
  -exchange      EXHF   =         0.00000000
  -V(xc)+E(xc)   XCENC  =       495.39908556
  PAW double counting   =     11393.90022116   -11620.93001452
  entropy T*S    EENTRO =        -0.00000000
  eigenvalues    EBANDS =     -1250.20415775
  atomic energy  EATOM  =     11559.05757976
  Solvation  Ediel_sol  =         0.00000000
  ---------------------------------------------------
  free energy    TOTEN  =       -89.89340499 eV

  energy without entropy =      -89.89340499  energy(sigma->0) =      -89.89340499


--------------------------------------------------------------------------------------------------------




--------------------------------------- Iteration      1(  12)  ---------------------------------------


    POTLOK:  cpu time    0.0124: real time    0.0126
    SETDIJ:  cpu time    0.1622: real time    0.1624
    EDDIAG:  cpu time    0.0102: real time    0.0102
  RMM-DIIS:  cpu time    0.0326: real time    0.0327
    ORTHCH:  cpu time    0.0016: real time    0.0016
       DOS:  cpu time    0.0003: real time    0.0002
    CHARGE:  cpu time    0.0033: real time    0.0033
    MIXING:  cpu time    0.0006: real time    0.0006
    --------------------------------------------
      LOOP:  cpu time    0.2231: real time    0.2237

 eigenvalue-minimisations  :   138
 total energy-change (2. order) : 0.2109263E+01  (-0.2210114E+00)
 number of electron     100.0000027 magnetization 
 augmentation part       33.5793690 magnetization 

 Broyden mixing:
  rms(total) = 0.18038E+01    rms(broyden)= 0.17927E+01
  rms(prec ) = 0.29200E+01
  weight for this iteration     100.00

 eigenvalues of (default mixing * dielectric matrix)
  average eigenvalue GAMMA=   0.4246
  1.3907  0.4647  0.3353  0.3353  0.2979  0.0956  0.0525

 Free energy of the ion-electron system (eV)
  ---------------------------------------------------
  alpha Z        PSCENC =       441.37612112
  Ewald energy   TEWEN  =     -7485.64291034
  -Hartree energ DENC   =     -3620.79056940
  -exchange      EXHF   =         0.00000000
  -V(xc)+E(xc)   XCENC  =       495.34405920
  PAW double counting   =     11414.31261905   -11641.49272017
  entropy T*S    EENTRO =        -0.00018292
  eigenvalues    EBANDS =     -1249.94813816
  atomic energy  EATOM  =     11559.05757976
  Solvation  Ediel_sol  =         0.00000000
  ---------------------------------------------------
  free energy    TOTEN  =       -87.78414187 eV

  energy without entropy =      -87.78395895  energy(sigma->0) =      -87.78405041


--------------------------------------------------------------------------------------------------------




--------------------------------------- Iteration      1(  13)  ---------------------------------------


    POTLOK:  cpu time    0.0117: real time    0.0117
    SETDIJ:  cpu time    0.1606: real time    0.1616
    EDDIAG:  cpu time    0.0134: real time    0.0334
  RMM-DIIS:  cpu time    0.0627: real time    0.0708
    ORTHCH:  cpu time    0.0018: real time    0.0019
       DOS:  cpu time    0.0003: real time    0.0003
    CHARGE:  cpu time    0.0115: real time    0.0118
    MIXING:  cpu time    0.0008: real time    0.0008
    --------------------------------------------
      LOOP:  cpu time    0.2628: real time    0.2922

 eigenvalue-minimisations  :   142
 total energy-change (2. order) : 0.4865436E+00  (-0.6313664E-01)
 number of electron     100.0000018 magnetization 
 augmentation part       33.8795431 magnetization 

 Broyden mixing:
  rms(total) = 0.12524E+01    rms(broyden)= 0.12438E+01
  rms(prec ) = 0.20063E+01
  weight for this iteration     100.00

 eigenvalues of (default mixing * dielectric matrix)
  average eigenvalue GAMMA=   0.3950
  1.3222  0.4787  0.4787  0.3176  0.2297  0.1872  0.0927  0.0531

 Free energy of the ion-electron system (eV)
  ---------------------------------------------------
  alpha Z        PSCENC =       441.37612112
  Ewald energy   TEWEN  =     -7485.64291034
  -Hartree energ DENC   =     -3617.50107218
  -exchange      EXHF   =         0.00000000
  -V(xc)+E(xc)   XCENC  =       495.31326464
  PAW double counting   =     11503.96483311   -11731.96279250
  entropy T*S    EENTRO =        -0.00578327
  eigenvalues    EBANDS =     -1251.89683859
  atomic energy  EATOM  =     11559.05757976
  Solvation  Ediel_sol  =         0.00000000
  ---------------------------------------------------
  free energy    TOTEN  =       -87.29759825 eV

  energy without entropy =      -87.29181498  energy(sigma->0) =      -87.29470661


--------------------------------------------------------------------------------------------------------




--------------------------------------- Iteration      1(  14)  ---------------------------------------


    POTLOK:  cpu time    0.0158: real time    0.0159
    SETDIJ:  cpu time    0.1630: real time    0.1643
    EDDIAG:  cpu time    0.0208: real time    0.0208
  RMM-DIIS:  cpu time    0.0538: real time    0.0540
    ORTHCH:  cpu time    0.0019: real time    0.0019
       DOS:  cpu time    0.0003: real time    0.0003
    CHARGE:  cpu time    0.0041: real time    0.0041
    MIXING:  cpu time    0.0013: real time    0.0013
    --------------------------------------------
      LOOP:  cpu time    0.2611: real time    0.2627

 eigenvalue-minimisations  :   149
 total energy-change (2. order) : 0.2239961E+00  (-0.1154184E-01)
 number of electron     100.0000027 magnetization 
 augmentation part       33.7591374 magnetization 

 Broyden mixing:
  rms(total) = 0.56192E+00    rms(broyden)= 0.55408E+00
  rms(prec ) = 0.75667E+00
  weight for this iteration     100.00

 eigenvalues of (default mixing * dielectric matrix)
  average eigenvalue GAMMA=   0.4624
  1.0363  1.0363  0.9123  0.3069  0.3069  0.2541  0.1630  0.0929  0.0528

 Free energy of the ion-electron system (eV)
  ---------------------------------------------------
  alpha Z        PSCENC =       441.37612112
  Ewald energy   TEWEN  =     -7485.64291034
  -Hartree energ DENC   =     -3618.57736590
  -exchange      EXHF   =         0.00000000
  -V(xc)+E(xc)   XCENC  =       495.30055507
  PAW double counting   =     11500.63402300   -11728.60567401
  entropy T*S    EENTRO =        -0.00463541
  eigenvalues    EBANDS =     -1250.61129546
  atomic energy  EATOM  =     11559.05757976
  Solvation  Ediel_sol  =         0.00000000
  ---------------------------------------------------
  free energy    TOTEN  =       -87.07360217 eV

  energy without entropy =      -87.06896676  energy(sigma->0) =      -87.07128447


--------------------------------------------------------------------------------------------------------




--------------------------------------- Iteration      1(  15)  ---------------------------------------


    POTLOK:  cpu time    0.0171: real time    0.0177
    SETDIJ:  cpu time    0.1607: real time    0.1618
    EDDIAG:  cpu time    0.0126: real time    0.0126
  RMM-DIIS:  cpu time    0.0304: real time    0.0304
    ORTHCH:  cpu time    0.0016: real time    0.0016
       DOS:  cpu time    0.0002: real time    0.0002
    CHARGE:  cpu time    0.0054: real time    0.0054
    MIXING:  cpu time    0.0007: real time    0.0007
    --------------------------------------------
      LOOP:  cpu time    0.2287: real time    0.2305

 eigenvalue-minimisations  :   133
 total energy-change (2. order) :-0.1589310E+00  (-0.1499149E-01)
 number of electron     100.0000016 magnetization 
 augmentation part       33.7828836 magnetization 

 Broyden mixing:
  rms(total) = 0.10390E+01    rms(broyden)= 0.10315E+01
  rms(prec ) = 0.14203E+01
  weight for this iteration     100.00

 eigenvalues of (default mixing * dielectric matrix)
  average eigenvalue GAMMA=   0.4578
  1.2134  1.2134  0.7611  0.3026  0.3026  0.2526  0.2526  0.1335  0.0932  0.0528

 Free energy of the ion-electron system (eV)
  ---------------------------------------------------
  alpha Z        PSCENC =       441.37612112
  Ewald energy   TEWEN  =     -7485.64291034
  -Hartree energ DENC   =     -3620.88335074
  -exchange      EXHF   =         0.00000000
  -V(xc)+E(xc)   XCENC  =       495.29410909
  PAW double counting   =     11501.59384353   -11729.61738735
  entropy T*S    EENTRO =        -0.00001742
  eigenvalues    EBANDS =     -1248.41052085
  atomic energy  EATOM  =     11559.05757976
  Solvation  Ediel_sol  =         0.00000000
  ---------------------------------------------------
  free energy    TOTEN  =       -87.23253320 eV

  energy without entropy =      -87.23251578  energy(sigma->0) =      -87.23252449


--------------------------------------------------------------------------------------------------------




--------------------------------------- Iteration      1(  16)  ---------------------------------------


    POTLOK:  cpu time    0.0130: real time    0.0131
    SETDIJ:  cpu time    0.1605: real time    0.1614
    EDDIAG:  cpu time    0.0099: real time    0.0099
  RMM-DIIS:  cpu time    0.0288: real time    0.0289
    ORTHCH:  cpu time    0.0017: real time    0.0018
       DOS:  cpu time    0.0004: real time    0.0004
    CHARGE:  cpu time    0.0051: real time    0.0055
    MIXING:  cpu time    0.0008: real time    0.0008
    --------------------------------------------
      LOOP:  cpu time    0.2201: real time    0.2218

 eigenvalue-minimisations  :   128
 total energy-change (2. order) : 0.9840112E-01  (-0.6728457E-02)
 number of electron     100.0000020 magnetization 
 augmentation part       33.7357558 magnetization 

 Broyden mixing:
  rms(total) = 0.86376E+00    rms(broyden)= 0.85666E+00
  rms(prec ) = 0.12463E+01
  weight for this iteration     100.00

 eigenvalues of (default mixing * dielectric matrix)
  average eigenvalue GAMMA=   0.4839
  1.3231  1.3231  0.6896  0.6896  0.2971  0.2837  0.2837  0.1552  0.1314  0.0936
  0.0528

 Free energy of the ion-electron system (eV)
  ---------------------------------------------------
  alpha Z        PSCENC =       441.37612112
  Ewald energy   TEWEN  =     -7485.64291034
  -Hartree energ DENC   =     -3621.18266053
  -exchange      EXHF   =         0.00000000
  -V(xc)+E(xc)   XCENC  =       495.29140835
  PAW double counting   =     11517.30624861   -11745.43696845
  entropy T*S    EENTRO =        -0.01046752
  eigenvalues    EBANDS =     -1247.89248308
  atomic energy  EATOM  =     11559.05757976
  Solvation  Ediel_sol  =         0.00000000
  ---------------------------------------------------
  free energy    TOTEN  =       -87.13413208 eV

  energy without entropy =      -87.12366456  energy(sigma->0) =      -87.12889832


--------------------------------------------------------------------------------------------------------




--------------------------------------- Iteration      1(  17)  ---------------------------------------


    POTLOK:  cpu time    0.0126: real time    0.0142
    SETDIJ:  cpu time    0.1668: real time    0.1677
    EDDIAG:  cpu time    0.0108: real time    0.0108
  RMM-DIIS:  cpu time    0.0541: real time    0.0545
    ORTHCH:  cpu time    0.0020: real time    0.0020
       DOS:  cpu time    0.0004: real time    0.0004
    CHARGE:  cpu time    0.0045: real time    0.0045
    MIXING:  cpu time    0.0012: real time    0.0012
    --------------------------------------------
      LOOP:  cpu time    0.2523: real time    0.2553

 eigenvalue-minimisations  :   128
 total energy-change (2. order) :-0.1146690E+00  (-0.1380521E-01)
 number of electron     100.0000020 magnetization 
 augmentation part       33.8553486 magnetization 

 Broyden mixing:
  rms(total) = 0.11359E+01    rms(broyden)= 0.11328E+01
  rms(prec ) = 0.19138E+01
  weight for this iteration     100.00

 eigenvalues of (default mixing * dielectric matrix)
  average eigenvalue GAMMA=   0.5315
  1.5888  1.5888  0.8367  0.5621  0.5621  0.2917  0.2522  0.2522  0.1768  0.0936
  0.1196  0.0528

 Free energy of the ion-electron system (eV)
  ---------------------------------------------------
  alpha Z        PSCENC =       441.37612112
  Ewald energy   TEWEN  =     -7485.64291034
  -Hartree energ DENC   =     -3619.38960577
  -exchange      EXHF   =         0.00000000
  -V(xc)+E(xc)   XCENC  =       495.30266475
  PAW double counting   =     11583.22252474   -11811.84802440
  entropy T*S    EENTRO =        -0.01018040
  eigenvalues    EBANDS =     -1249.31697057
  atomic energy  EATOM  =     11559.05757976
  Solvation  Ediel_sol  =         0.00000000
  ---------------------------------------------------
  free energy    TOTEN  =       -87.24880111 eV

  energy without entropy =      -87.23862070  energy(sigma->0) =      -87.24371090


--------------------------------------------------------------------------------------------------------




--------------------------------------- Iteration      1(  18)  ---------------------------------------


    POTLOK:  cpu time    0.0153: real time    0.0154
    SETDIJ:  cpu time    0.1663: real time    0.1677
    EDDIAG:  cpu time    0.0110: real time    0.0111
  RMM-DIIS:  cpu time    0.0408: real time    0.0409
    ORTHCH:  cpu time    0.0020: real time    0.0020
       DOS:  cpu time    0.0004: real time    0.0004
    CHARGE:  cpu time    0.0044: real time    0.0044
    MIXING:  cpu time    0.0013: real time    0.0013
    --------------------------------------------
      LOOP:  cpu time    0.2415: real time    0.2432

 eigenvalue-minimisations  :   138
 total energy-change (2. order) : 0.1419427E+00  (-0.5182255E-02)
 number of electron     100.0000020 magnetization 
 augmentation part       33.9147235 magnetization 

 Broyden mixing:
  rms(total) = 0.57623E+00    rms(broyden)= 0.57413E+00
  rms(prec ) = 0.81553E+00
  weight for this iteration     100.00

 eigenvalues of (default mixing * dielectric matrix)
  average eigenvalue GAMMA=   0.5179
  1.6630  1.6630  0.7907  0.5880  0.5880  0.2929  0.2542  0.2542  0.2102  0.0528
  0.0936  0.1596  0.1230

 Free energy of the ion-electron system (eV)
  ---------------------------------------------------
  alpha Z        PSCENC =       441.37612112
  Ewald energy   TEWEN  =     -7485.64291034
  -Hartree energ DENC   =     -3619.62189287
  -exchange      EXHF   =         0.00000000
  -V(xc)+E(xc)   XCENC  =       495.30194799
  PAW double counting   =     11606.93108694   -11835.70645837
  entropy T*S    EENTRO =        -0.00653580
  eigenvalues    EBANDS =     -1248.79579681
  atomic energy  EATOM  =     11559.05757976
  Solvation  Ediel_sol  =         0.00000000
  ---------------------------------------------------
  free energy    TOTEN  =       -87.10685838 eV

  energy without entropy =      -87.10032257  energy(sigma->0) =      -87.10359048


--------------------------------------------------------------------------------------------------------




--------------------------------------- Iteration      1(  19)  ---------------------------------------


    POTLOK:  cpu time    0.0160: real time    0.0161
    SETDIJ:  cpu time    0.1590: real time    0.1598
    EDDIAG:  cpu time    0.0097: real time    0.0097
  RMM-DIIS:  cpu time    0.0301: real time    0.0304
    ORTHCH:  cpu time    0.0016: real time    0.0017
       DOS:  cpu time    0.0003: real time    0.0003
    CHARGE:  cpu time    0.0032: real time    0.0033
    MIXING:  cpu time    0.0008: real time    0.0008
    --------------------------------------------
      LOOP:  cpu time    0.2205: real time    0.2220

 eigenvalue-minimisations  :   134
 total energy-change (2. order) : 0.1887639E-01  (-0.9450999E-03)
 number of electron     100.0000022 magnetization 
 augmentation part       33.8826480 magnetization 

 Broyden mixing:
  rms(total) = 0.33798E+00    rms(broyden)= 0.33249E+00
  rms(prec ) = 0.38484E+00
  weight for this iteration     100.00

 eigenvalues of (default mixing * dielectric matrix)
  average eigenvalue GAMMA=   0.5030
  1.6953  1.6953  0.7095  0.7095  0.5576  0.3478  0.2845  0.2463  0.2463  0.1706
  0.0528  0.0936  0.1222  0.1106

 Free energy of the ion-electron system (eV)
  ---------------------------------------------------
  alpha Z        PSCENC =       441.37612112
  Ewald energy   TEWEN  =     -7485.64291034
  -Hartree energ DENC   =     -3619.93341225
  -exchange      EXHF   =         0.00000000
  -V(xc)+E(xc)   XCENC  =       495.30173947
  PAW double counting   =     11609.80808568   -11838.60726912
  entropy T*S    EENTRO =        -0.00885909
  eigenvalues    EBANDS =     -1248.43905722
  atomic energy  EATOM  =     11559.05757976
  Solvation  Ediel_sol  =         0.00000000
  ---------------------------------------------------
  free energy    TOTEN  =       -87.08798199 eV

  energy without entropy =      -87.07912290  energy(sigma->0) =      -87.08355244


--------------------------------------------------------------------------------------------------------




--------------------------------------- Iteration      1(  20)  ---------------------------------------


    POTLOK:  cpu time    0.0120: real time    0.0120
    SETDIJ:  cpu time    0.1649: real time    0.1657
    EDDIAG:  cpu time    0.0099: real time    0.0099
  RMM-DIIS:  cpu time    0.0269: real time    0.0270
    ORTHCH:  cpu time    0.0016: real time    0.0016
       DOS:  cpu time    0.0002: real time    0.0002
    CHARGE:  cpu time    0.0034: real time    0.0035
    MIXING:  cpu time    0.0008: real time    0.0008
    --------------------------------------------
      LOOP:  cpu time    0.2197: real time    0.2208

 eigenvalue-minimisations  :   124
 total energy-change (2. order) :-0.1755357E-01  (-0.9495444E-03)
 number of electron     100.0000024 magnetization 
 augmentation part       33.8529229 magnetization 

 Broyden mixing:
  rms(total) = 0.18384E+00    rms(broyden)= 0.17975E+00
  rms(prec ) = 0.22943E+00
  weight for this iteration     100.00

 eigenvalues of (default mixing * dielectric matrix)
  average eigenvalue GAMMA=   0.5017
  1.7203  1.7203  0.7694  0.7694  0.5253  0.3390  0.3390  0.2962  0.2522  0.2522
  0.1709  0.0528  0.0936  0.1209  0.1040

 Free energy of the ion-electron system (eV)
  ---------------------------------------------------
  alpha Z        PSCENC =       441.37612112
  Ewald energy   TEWEN  =     -7485.64291034
  -Hartree energ DENC   =     -3620.10452761
  -exchange      EXHF   =         0.00000000
  -V(xc)+E(xc)   XCENC  =       495.30294027
  PAW double counting   =     11610.80565258   -11839.62072435
  entropy T*S    EENTRO =        -0.01161419
  eigenvalues    EBANDS =     -1248.26805280
  atomic energy  EATOM  =     11559.05757976
  Solvation  Ediel_sol  =         0.00000000
  ---------------------------------------------------
  free energy    TOTEN  =       -87.10553555 eV

  energy without entropy =      -87.09392136  energy(sigma->0) =      -87.09972846


--------------------------------------------------------------------------------------------------------




--------------------------------------- Iteration      1(  21)  ---------------------------------------


    POTLOK:  cpu time    0.0116: real time    0.0116
    SETDIJ:  cpu time    0.1596: real time    0.1609
    EDDIAG:  cpu time    0.0097: real time    0.0098
  RMM-DIIS:  cpu time    0.0413: real time    0.0420
    ORTHCH:  cpu time    0.0018: real time    0.0018
       DOS:  cpu time    0.0003: real time    0.0003
    CHARGE:  cpu time    0.0156: real time    0.0157
    MIXING:  cpu time    0.0013: real time    0.0013
    --------------------------------------------
      LOOP:  cpu time    0.2413: real time    0.2435

 eigenvalue-minimisations  :   130
 total energy-change (2. order) :-0.2200508E-01  (-0.4115990E-03)
 number of electron     100.0000024 magnetization 
 augmentation part       33.8505955 magnetization 

 Broyden mixing:
  rms(total) = 0.15736E+00    rms(broyden)= 0.15659E+00
  rms(prec ) = 0.20461E+00
  weight for this iteration     100.00

 eigenvalues of (default mixing * dielectric matrix)
  average eigenvalue GAMMA=   0.5377
  1.7955  1.7955  0.9244  0.9244  0.5645  0.5141  0.5141  0.2451  0.2451  0.2883
  0.2541  0.1685  0.0528  0.1216  0.0936  0.1013

 Free energy of the ion-electron system (eV)
  ---------------------------------------------------
  alpha Z        PSCENC =       441.37612112
  Ewald energy   TEWEN  =     -7485.64291034
  -Hartree energ DENC   =     -3620.20205066
  -exchange      EXHF   =         0.00000000
  -V(xc)+E(xc)   XCENC  =       495.30565397
  PAW double counting   =     11610.89337002   -11839.72218745
  entropy T*S    EENTRO =        -0.01154627
  eigenvalues    EBANDS =     -1248.18157079
  atomic energy  EATOM  =     11559.05757976
  Solvation  Ediel_sol  =         0.00000000
  ---------------------------------------------------
  free energy    TOTEN  =       -87.12754063 eV

  energy without entropy =      -87.11599436  energy(sigma->0) =      -87.12176750


--------------------------------------------------------------------------------------------------------




--------------------------------------- Iteration      1(  22)  ---------------------------------------


    POTLOK:  cpu time    0.0160: real time    0.0161
    SETDIJ:  cpu time    0.1577: real time    0.1585
    EDDIAG:  cpu time    0.0099: real time    0.0100
  RMM-DIIS:  cpu time    0.0302: real time    0.0304
    ORTHCH:  cpu time    0.0019: real time    0.0019
       DOS:  cpu time    0.0002: real time    0.0002
    CHARGE:  cpu time    0.0032: real time    0.0033
    MIXING:  cpu time    0.0011: real time    0.0010
    --------------------------------------------
      LOOP:  cpu time    0.2202: real time    0.2213

 eigenvalue-minimisations  :   129
 total energy-change (2. order) :-0.1051803E-01  (-0.2635911E-03)
 number of electron     100.0000024 magnetization 
 augmentation part       33.8475931 magnetization 

 Broyden mixing:
  rms(total) = 0.36686E+00    rms(broyden)= 0.36565E+00
  rms(prec ) = 0.60371E+00
  weight for this iteration     100.00

 eigenvalues of (default mixing * dielectric matrix)
  average eigenvalue GAMMA=   0.5557
  2.2836  1.5167  0.9539  0.8910  0.8910  0.6109  0.3808  0.3808  0.2946  0.2542
  0.2542  0.1952  0.1701  0.0528  0.1214  0.0936  0.1013

 Free energy of the ion-electron system (eV)
  ---------------------------------------------------
  alpha Z        PSCENC =       441.37612112
  Ewald energy   TEWEN  =     -7485.64291034
  -Hartree energ DENC   =     -3620.29909822
  -exchange      EXHF   =         0.00000000
  -V(xc)+E(xc)   XCENC  =       495.30759621
  PAW double counting   =     11616.06895193   -11844.94392573
  entropy T*S    EENTRO =        -0.01123303
  eigenvalues    EBANDS =     -1248.05114036
  atomic energy  EATOM  =     11559.05757976
  Solvation  Ediel_sol  =         0.00000000
  ---------------------------------------------------
  free energy    TOTEN  =       -87.13805866 eV

  energy without entropy =      -87.12682563  energy(sigma->0) =      -87.13244215


--------------------------------------------------------------------------------------------------------




--------------------------------------- Iteration      1(  23)  ---------------------------------------


    POTLOK:  cpu time    0.0126: real time    0.0127
    SETDIJ:  cpu time    0.1669: real time    0.1713
    EDDIAG:  cpu time    0.0097: real time    0.0097
  RMM-DIIS:  cpu time    0.0329: real time    0.0330
    ORTHCH:  cpu time    0.0016: real time    0.0016
       DOS:  cpu time    0.0003: real time    0.0003
    CHARGE:  cpu time    0.0035: real time    0.0035
    MIXING:  cpu time    0.0013: real time    0.0014
    --------------------------------------------
      LOOP:  cpu time    0.2288: real time    0.2335

 eigenvalue-minimisations  :   126
 total energy-change (2. order) : 0.9976109E-02  (-0.3513609E-03)
 number of electron     100.0000024 magnetization 
 augmentation part       33.8527285 magnetization 

 Broyden mixing:
  rms(total) = 0.22291E+00    rms(broyden)= 0.22258E+00
  rms(prec ) = 0.37431E+00
  weight for this iteration     100.00

 eigenvalues of (default mixing * dielectric matrix)
  average eigenvalue GAMMA=   0.5504
  2.3323  1.5826  0.8925  0.8925  0.9245  0.6607  0.3886  0.3886  0.2983  0.2983
  0.2542  0.2542  0.2017  0.1691  0.0528  0.1215  0.0936  0.1013

 Free energy of the ion-electron system (eV)
  ---------------------------------------------------
  alpha Z        PSCENC =       441.37612112
  Ewald energy   TEWEN  =     -7485.64291034
  -Hartree energ DENC   =     -3620.39407605
  -exchange      EXHF   =         0.00000000
  -V(xc)+E(xc)   XCENC  =       495.30737403
  PAW double counting   =     11621.45611650   -11850.35093606
  entropy T*S    EENTRO =        -0.01125246
  eigenvalues    EBANDS =     -1247.92609905
  atomic energy  EATOM  =     11559.05757976
  Solvation  Ediel_sol  =         0.00000000
  ---------------------------------------------------
  free energy    TOTEN  =       -87.12808255 eV

  energy without entropy =      -87.11683009  energy(sigma->0) =      -87.12245632


--------------------------------------------------------------------------------------------------------




--------------------------------------- Iteration      1(  24)  ---------------------------------------


    POTLOK:  cpu time    0.0138: real time    0.0138
    SETDIJ:  cpu time    0.1588: real time    0.1596
    EDDIAG:  cpu time    0.0103: real time    0.0104
  RMM-DIIS:  cpu time    0.0537: real time    0.0549
    ORTHCH:  cpu time    0.0023: real time    0.0024
       DOS:  cpu time    0.0003: real time    0.0003
    CHARGE:  cpu time    0.0041: real time    0.0041
    MIXING:  cpu time    0.0014: real time    0.0014
    --------------------------------------------
      LOOP:  cpu time    0.2446: real time    0.2468

 eigenvalue-minimisations  :   129
 total energy-change (2. order) :-0.2629390E-02  (-0.1030667E-03)
 number of electron     100.0000024 magnetization 
 augmentation part       33.8439786 magnetization 

 Broyden mixing:
  rms(total) = 0.12632E+00    rms(broyden)= 0.12372E+00
  rms(prec ) = 0.19180E+00
  weight for this iteration     100.00

 eigenvalues of (default mixing * dielectric matrix)
  average eigenvalue GAMMA=   0.5534
  2.3068  1.7852  0.9523  0.9523  0.7265  0.7265  0.6424  0.3561  0.3561  0.2954
  0.2555  0.2555  0.0528  0.1680  0.1857  0.1801  0.1215  0.0936  0.1013

 Free energy of the ion-electron system (eV)
  ---------------------------------------------------
  alpha Z        PSCENC =       441.37612112
  Ewald energy   TEWEN  =     -7485.64291034
  -Hartree energ DENC   =     -3620.52717133
  -exchange      EXHF   =         0.00000000
  -V(xc)+E(xc)   XCENC  =       495.30722537
  PAW double counting   =     11620.64489355   -11849.52069820
  entropy T*S    EENTRO =        -0.01107598
  eigenvalues    EBANDS =     -1247.81467588
  atomic energy  EATOM  =     11559.05757976
  Solvation  Ediel_sol  =         0.00000000
  ---------------------------------------------------
  free energy    TOTEN  =       -87.13071194 eV

  energy without entropy =      -87.11963596  energy(sigma->0) =      -87.12517395


--------------------------------------------------------------------------------------------------------




--------------------------------------- Iteration      1(  25)  ---------------------------------------


    POTLOK:  cpu time    0.0141: real time    0.0163
    SETDIJ:  cpu time    0.1622: real time    0.1630
    EDDIAG:  cpu time    0.0097: real time    0.0097
  RMM-DIIS:  cpu time    0.0269: real time    0.0269
    ORTHCH:  cpu time    0.0015: real time    0.0015
       DOS:  cpu time    0.0002: real time    0.0003
    CHARGE:  cpu time    0.0033: real time    0.0033
    MIXING:  cpu time    0.0011: real time    0.0011
    --------------------------------------------
      LOOP:  cpu time    0.2192: real time    0.2222

 eigenvalue-minimisations  :   122
 total energy-change (2. order) :-0.5057847E-02  (-0.1386537E-03)
 number of electron     100.0000024 magnetization 
 augmentation part       33.8366078 magnetization 

 Broyden mixing:
  rms(total) = 0.27787E+00    rms(broyden)= 0.27739E+00
  rms(prec ) = 0.46385E+00
  weight for this iteration     100.00

 eigenvalues of (default mixing * dielectric matrix)
  average eigenvalue GAMMA=   0.5460
  2.2449  1.8263  1.0588  1.0588  0.7152  0.7152  0.5998  0.2976  0.2976  0.2994
  0.2961  0.2961  0.2404  0.2404  0.1954  0.1695  0.0528  0.1215  0.0936  0.1013

 Free energy of the ion-electron system (eV)
  ---------------------------------------------------
  alpha Z        PSCENC =       441.37612112
  Ewald energy   TEWEN  =     -7485.64291034
  -Hartree energ DENC   =     -3620.61937736
  -exchange      EXHF   =         0.00000000
  -V(xc)+E(xc)   XCENC  =       495.30767879
  PAW double counting   =     11619.18510734   -11848.04352090
  entropy T*S    EENTRO =        -0.01082777
  eigenvalues    EBANDS =     -1247.74562042
  atomic energy  EATOM  =     11559.05757976
  Solvation  Ediel_sol  =         0.00000000
  ---------------------------------------------------
  free energy    TOTEN  =       -87.13576979 eV

  energy without entropy =      -87.12494202  energy(sigma->0) =      -87.13035591


--------------------------------------------------------------------------------------------------------




--------------------------------------- Iteration      1(  26)  ---------------------------------------


    POTLOK:  cpu time    0.0117: real time    0.0117
    SETDIJ:  cpu time    0.1570: real time    0.1577
    EDDIAG:  cpu time    0.0096: real time    0.0096
  RMM-DIIS:  cpu time    0.0316: real time    0.0325
    ORTHCH:  cpu time    0.0021: real time    0.0021
       DOS:  cpu time    0.0003: real time    0.0003
    CHARGE:  cpu time    0.0044: real time    0.0044
    MIXING:  cpu time    0.0017: real time    0.0017
    --------------------------------------------
      LOOP:  cpu time    0.2184: real time    0.2202

 eigenvalue-minimisations  :   125
 total energy-change (2. order) : 0.7328712E-02  (-0.5431946E-04)
 number of electron     100.0000024 magnetization 
 augmentation part       33.8385312 magnetization 

 Broyden mixing:
  rms(total) = 0.19138E+00    rms(broyden)= 0.19130E+00
  rms(prec ) = 0.32174E+00
  weight for this iteration     100.00

 eigenvalues of (default mixing * dielectric matrix)
  average eigenvalue GAMMA=   0.5659
  2.0590  2.0590  1.2792  1.2792  0.6637  0.6637  0.6285  0.4014  0.4014  0.4049
  0.3170  0.2977  0.2512  0.2512  0.0528  0.2021  0.1699  0.1850  0.1215  0.0936
  0.1013

 Free energy of the ion-electron system (eV)
  ---------------------------------------------------
  alpha Z        PSCENC =       441.37612112
  Ewald energy   TEWEN  =     -7485.64291034
  -Hartree energ DENC   =     -3620.56927409
  -exchange      EXHF   =         0.00000000
  -V(xc)+E(xc)   XCENC  =       495.30880713
  PAW double counting   =     11619.09288289   -11847.95066601
  entropy T*S    EENTRO =        -0.01084222
  eigenvalues    EBANDS =     -1247.79013931
  atomic energy  EATOM  =     11559.05757976
  Solvation  Ediel_sol  =         0.00000000
  ---------------------------------------------------
  free energy    TOTEN  =       -87.12844108 eV

  energy without entropy =      -87.11759885  energy(sigma->0) =      -87.12301997


--------------------------------------------------------------------------------------------------------




--------------------------------------- Iteration      1(  27)  ---------------------------------------


    POTLOK:  cpu time    0.0162: real time    0.0172
    SETDIJ:  cpu time    0.1593: real time    0.1601
    EDDIAG:  cpu time    0.0095: real time    0.0095
  RMM-DIIS:  cpu time    0.0284: real time    0.0285
    ORTHCH:  cpu time    0.0016: real time    0.0016
       DOS:  cpu time    0.0002: real time    0.0002
    CHARGE:  cpu time    0.0033: real time    0.0033
    MIXING:  cpu time    0.0022: real time    0.0022
    --------------------------------------------
      LOOP:  cpu time    0.2206: real time    0.2225

 eigenvalue-minimisations  :   125
 total energy-change (2. order) :-0.8707790E-03  (-0.3045638E-04)
 number of electron     100.0000025 magnetization 
 augmentation part       33.8413474 magnetization 

 Broyden mixing:
  rms(total) = 0.35390E-01    rms(broyden)= 0.31107E-01
  rms(prec ) = 0.39114E-01
  weight for this iteration     100.00
  WARNING: grid for Broyden might be to small

 eigenvalues of (default mixing * dielectric matrix)
  average eigenvalue GAMMA=   0.5754
  2.1645  2.1645  1.3631  1.3631  0.7428  0.7428  0.5037  0.5037  0.3832  0.3832
  0.3652  0.2506  0.2506  0.2990  0.2703  0.0528  0.1939  0.1720  0.1729  0.1215
  0.0936  0.1013

 Free energy of the ion-electron system (eV)
  ---------------------------------------------------
  alpha Z        PSCENC =       441.37612112
  Ewald energy   TEWEN  =     -7485.64291034
  -Hartree energ DENC   =     -3620.56319787
  -exchange      EXHF   =         0.00000000
  -V(xc)+E(xc)   XCENC  =       495.31061603
  PAW double counting   =     11618.74854612   -11847.59869133
  entropy T*S    EENTRO =        -0.01099639
  eigenvalues    EBANDS =     -1247.80637895
  atomic energy  EATOM  =     11559.05757976
  Solvation  Ediel_sol  =         0.00000000
  ---------------------------------------------------
  free energy    TOTEN  =       -87.12931186 eV

  energy without entropy =      -87.11831547  energy(sigma->0) =      -87.12381366


--------------------------------------------------------------------------------------------------------




--------------------------------------- Iteration      1(  28)  ---------------------------------------


    POTLOK:  cpu time    0.0133: real time    0.0133
    SETDIJ:  cpu time    0.1594: real time    0.1606
    EDDIAG:  cpu time    0.0102: real time    0.0103
  RMM-DIIS:  cpu time    0.0366: real time    0.0368
    ORTHCH:  cpu time    0.0024: real time    0.0024
       DOS:  cpu time    0.0004: real time    0.0004
    CHARGE:  cpu time    0.0072: real time    0.0074
    MIXING:  cpu time    0.0019: real time    0.0019
    --------------------------------------------
      LOOP:  cpu time    0.2314: real time    0.2329

 eigenvalue-minimisations  :   122
 total energy-change (2. order) :-0.4495521E-02  (-0.5234768E-04)
 number of electron     100.0000025 magnetization 
 augmentation part       33.8384870 magnetization 

 Broyden mixing:
  rms(total) = 0.79874E-01    rms(broyden)= 0.79408E-01
  rms(prec ) = 0.12727E+00
  weight for this iteration     100.00

 eigenvalues of (default mixing * dielectric matrix)
  average eigenvalue GAMMA=   0.5953
  2.3523  1.8481  1.8481  1.0178  0.8960  0.8960  0.6148  0.6148  0.4074  0.4074
  0.4156  0.4156  0.2940  0.2529  0.2529  0.0528  0.2316  0.2018  0.1699  0.1860
  0.1215  0.0936  0.1013

 Free energy of the ion-electron system (eV)
  ---------------------------------------------------
  alpha Z        PSCENC =       441.37612112
  Ewald energy   TEWEN  =     -7485.64291034
  -Hartree energ DENC   =     -3620.60531488
  -exchange      EXHF   =         0.00000000
  -V(xc)+E(xc)   XCENC  =       495.31144437
  PAW double counting   =     11618.69097802   -11847.53298521
  entropy T*S    EENTRO =        -0.01081812
  eigenvalues    EBANDS =     -1247.77790209
  atomic energy  EATOM  =     11559.05757976
  Solvation  Ediel_sol  =         0.00000000
  ---------------------------------------------------
  free energy    TOTEN  =       -87.13380738 eV

  energy without entropy =      -87.12298926  energy(sigma->0) =      -87.12839832


--------------------------------------------------------------------------------------------------------




--------------------------------------- Iteration      1(  29)  ---------------------------------------


    POTLOK:  cpu time    0.0165: real time    0.0166
    SETDIJ:  cpu time    0.1592: real time    0.1600
    EDDIAG:  cpu time    0.0097: real time    0.0097
  RMM-DIIS:  cpu time    0.0273: real time    0.0273
    ORTHCH:  cpu time    0.0015: real time    0.0015
       DOS:  cpu time    0.0002: real time    0.0002
    CHARGE:  cpu time    0.0031: real time    0.0031
    MIXING:  cpu time    0.0029: real time    0.0035
    --------------------------------------------
      LOOP:  cpu time    0.2205: real time    0.2220

 eigenvalue-minimisations  :   116
 total energy-change (2. order) : 0.2149679E-03  (-0.2080024E-04)
 number of electron     100.0000024 magnetization 
 augmentation part       33.8444822 magnetization 

 Broyden mixing:
  rms(total) = 0.10761E+00    rms(broyden)= 0.10744E+00
  rms(prec ) = 0.17964E+00
  weight for this iteration     100.00

 eigenvalues of (default mixing * dielectric matrix)
  average eigenvalue GAMMA=   0.6100
  2.3573  2.3573  1.7255  1.0076  1.0076  0.9027  0.5268  0.5268  0.4529  0.4529
  0.4782  0.4782  0.4068  0.2935  0.2521  0.2521  0.2390  0.0528  0.1986  0.1699
  0.1859  0.1215  0.0936  0.1013

 Free energy of the ion-electron system (eV)
  ---------------------------------------------------
  alpha Z        PSCENC =       441.37612112
  Ewald energy   TEWEN  =     -7485.64291034
  -Hartree energ DENC   =     -3620.58558395
  -exchange      EXHF   =         0.00000000
  -V(xc)+E(xc)   XCENC  =       495.31069973
  PAW double counting   =     11618.76870108   -11847.60383905
  entropy T*S    EENTRO =        -0.01108634
  eigenvalues    EBANDS =     -1247.80327441
  atomic energy  EATOM  =     11559.05757976
  Solvation  Ediel_sol  =         0.00000000
  ---------------------------------------------------
  free energy    TOTEN  =       -87.13359241 eV

[...]


    POTLOK:  cpu time    0.0202: real time    0.0203
    SETDIJ:  cpu time    0.1317: real time    0.1588
    EDDIAG:  cpu time    0.0083: real time    0.0149
  RMM-DIIS:  cpu time    0.0197: real time    0.0408
    ORTHCH:  cpu time    0.0018: real time    0.0033
       DOS:  cpu time    0.0001: real time    0.0004
    CHARGE:  cpu time    0.0032: real time    0.0063
    MIXING:  cpu time    0.0007: real time    0.0012
    --------------------------------------------
      LOOP:  cpu time    0.1858: real time    0.2460

 eigenvalue-minimisations  :    75
 total energy-change (2. order) :-0.6052728E-04  (-0.2581765E-05)
 number of electron     100.0000006 magnetization 
 augmentation part       33.9327130 magnetization 

 Broyden mixing:
  rms(total) = 0.40831E-02    rms(broyden)= 0.40603E-02
  rms(prec ) = 0.50453E-02
  weight for this iteration     100.00

 eigenvalues of (default mixing * dielectric matrix)
  average eigenvalue GAMMA=   0.5629
  1.2137  1.2137  0.3138  0.0399  0.0335

 Free energy of the ion-electron system (eV)
  ---------------------------------------------------
  alpha Z        PSCENC =       441.37612112
  Ewald energy   TEWEN  =     -7415.56058929
  -Hartree energ DENC   =     -3692.67723586
  -exchange      EXHF   =         0.00000000
  -V(xc)+E(xc)   XCENC  =       498.27502776
  PAW double counting   =     12952.14814868   -13180.41053513
  entropy T*S    EENTRO =        -0.00000000
  eigenvalues    EBANDS =     -1253.85169691
  atomic energy  EATOM  =     11559.05757976
  Solvation  Ediel_sol  =         0.00000000
  ---------------------------------------------------
  free energy    TOTEN  =       -91.64317989 eV

  energy without entropy =      -91.64317989  energy(sigma->0) =      -91.64317989


--------------------------------------------------------------------------------------------------------




--------------------------------------- Iteration     65(   7)  ---------------------------------------


    POTLOK:  cpu time    0.0139: real time    0.0322
    SETDIJ:  cpu time    0.1184: real time    0.1602
    EDDIAG:  cpu time    0.0097: real time    0.0198
  RMM-DIIS:  cpu time    0.0355: real time    0.0357
    ORTHCH:  cpu time    0.0015: real time    0.0015
       DOS:  cpu time    0.0001: real time    0.0001
    --------------------------------------------
      LOOP:  cpu time    0.1791: real time    0.2494

 eigenvalue-minimisations  :    70
 total energy-change (2. order) :-0.4096182E-07  (-0.1400694E-05)
 number of electron     100.0000006 magnetization 
 augmentation part       33.9327130 magnetization 

 Free energy of the ion-electron system (eV)
  ---------------------------------------------------
  alpha Z        PSCENC =       441.37612112
  Ewald energy   TEWEN  =     -7415.56058929
  -Hartree energ DENC   =     -3692.67247817
  -exchange      EXHF   =         0.00000000
  -V(xc)+E(xc)   XCENC  =       498.27444648
  PAW double counting   =     12952.48139081   -13180.74336036
  entropy T*S    EENTRO =        -0.00000000
  eigenvalues    EBANDS =     -1253.85629028
  atomic energy  EATOM  =     11559.05757976
  Solvation  Ediel_sol  =         0.00000000
  ---------------------------------------------------
  free energy    TOTEN  =       -91.64317993 eV

  energy without entropy =      -91.64317993  energy(sigma->0) =      -91.64317993


--------------------------------------------------------------------------------------------------------




 average (electrostatic) potential at core
  the test charge radii are     0.9577  0.7215
  (the norm of the test charge is              1.0000)
       1 -70.8121       2 -70.8145       3 -70.8126       4 -70.8140       5 -72.1514
       6 -72.1448       7 -72.1471       8 -72.1458       9 -71.5522      10 -71.5513
      11 -71.5527      12 -71.5522
 
 
 
 E-fermi :   5.6187     XC(G=0): -11.0755     alpha+bet :-11.2923


 k-point     1 :       0.0000    0.0000    0.0000
  band No.  band energies     occupation 
      1     -44.3286      2.00000
      2     -44.3270      2.00000
      3     -44.3207      2.00000
      4     -44.3193      2.00000
      5     -44.2140      2.00000
      6     -44.2083      2.00000
      7     -44.1999      2.00000
      8     -44.1934      2.00000
      9     -43.6231      2.00000
     10     -43.6208      2.00000
     11     -43.5952      2.00000
     12     -43.5929      2.00000
     13     -15.8846      2.00000
     14     -15.5134      2.00000
     15     -15.2527      2.00000
     16     -14.8270      2.00000
     17     -13.8025      2.00000
     18     -13.7921      2.00000
     19     -13.7361      2.00000
     20     -13.7266      2.00000
     21      -2.8229      2.00000
     22      -2.6619      2.00000
     23      -2.3622      2.00000
     24      -2.2651      2.00000
     25      -1.7405      2.00000
     26      -1.6818      2.00000
     27      -1.6059      2.00000
     28      -1.5235      2.00000
     29      -1.3633      2.00000
     30      -1.1398      2.00000
     31      -1.0243      2.00000
     32      -0.6894      2.00000
     33       0.1837      2.00000
     34       0.2241      2.00000
     35       0.3454      2.00000
     36       0.5098      2.00000
     37       0.6319      2.00000
     38       0.7290      2.00000
     39       0.9052      2.00000
     40       0.9268      2.00000
     41       1.3048      2.00000
     42       1.6980      2.00000
     43       2.0087      2.00000
     44       2.4892      2.00000
     45       3.7702      2.00000
     46       3.8749      2.00000
     47       4.2759      2.00000
     48       4.3359      2.00000
     49       5.3630      2.00000
     50       5.4539      2.00000
     51       5.6712      0.00000
     52       5.6802      0.00000
     53       5.6865      0.00000
     54       5.7227      0.00000
     55       5.7395      0.00000
     56       5.7945      0.00000
     57       7.3301      0.00000
     58       7.4677      0.00000
     59       7.6692      0.00000
     60       7.7406      0.00000


--------------------------------------------------------------------------------------------------------


 soft charge-density along one line, spin component           1
         0         1         2         3         4         5         6         7         8         9
 total charge-density along one line
 
 pseudopotential strength for first ion, spin component:           1
-43.832   0.069  -0.000   8.542  -0.036   0.000   0.000  -0.075
  0.069 -44.209   0.000  -0.036   8.700  -0.000   0.000  -0.027
 -0.000   0.000 -44.337   0.000  -0.000   8.765  -0.025   0.000
  8.542  -0.036   0.000   4.956   0.008  -0.000  -0.000   0.024
 -0.036   8.700  -0.000   0.008   4.906   0.000  -0.000   0.011
  0.000  -0.000   8.765  -0.000   0.000   4.885   0.010  -0.000
  0.000   0.000  -0.025  -0.000  -0.000   0.010  -4.355   0.000
 -0.075  -0.027   0.000   0.024   0.011  -0.000   0.000  -4.294
  0.006  -0.073  -0.000  -0.005   0.027   0.000   0.000   0.048
  0.000   0.000  -0.137  -0.000  -0.000   0.031   0.021  -0.000
  0.012  -0.031   0.000  -0.010   0.003  -0.000  -0.000  -0.054
  0.000   0.000  -0.024  -0.000  -0.000   0.010  -4.822   0.000
 -0.074  -0.027   0.000   0.024   0.010  -0.000   0.000  -4.762
  0.005  -0.071  -0.000  -0.005   0.027   0.000   0.000   0.048
  0.000   0.000  -0.135  -0.000  -0.000   0.030   0.021  -0.000
  0.012  -0.031   0.000  -0.009   0.003  -0.000  -0.000  -0.053
  0.012   0.025  -0.000  -0.007  -0.003   0.000   0.000  -0.021
  0.027   0.048  -0.000  -0.013  -0.007   0.000   0.000  -0.042
 total augmentation occupancy for first ion, spin component:           1
  1.990   0.000   0.000  -0.040  -0.002  -0.000  -0.000   0.066  -0.021  -0.000   0.009   0.000  -0.061   0.020   0.000  -0.007
  0.000   1.989   0.000  -0.002  -0.042   0.000  -0.000  -0.065   0.054  -0.000  -0.034   0.000   0.062  -0.048  -0.000   0.031
  0.000   0.000   1.990  -0.000   0.000  -0.037  -0.038   0.000   0.000  -0.063   0.000   0.038  -0.000  -0.000   0.064  -0.000
 -0.040  -0.002  -0.000   0.200  -0.071  -0.000  -0.000   0.429  -0.058   0.000   0.123   0.000  -0.494   0.078  -0.000  -0.164
 -0.002  -0.042   0.000  -0.071   0.224  -0.000  -0.000  -0.628   0.181   0.000  -0.498   0.000   0.687  -0.303  -0.000   0.553
 -0.000   0.000  -0.037  -0.000  -0.000   0.269  -0.301   0.000   0.000  -0.480   0.000   0.358  -0.000  -0.000   0.712  -0.000
 -0.000  -0.000  -0.038  -0.000  -0.000  -0.301   3.702   0.000   0.000   0.514  -0.000  -3.299   0.000  -0.000  -1.962   0.000
  0.066  -0.065   0.000   0.429  -0.628   0.000   0.000   9.335   0.068  -0.000   0.368   0.000  -8.237   1.258   0.000  -1.272
 -0.021   0.054   0.000  -0.058   0.181   0.000   0.000   0.068   5.189   0.000  -2.575  -0.000   1.348  -5.145  -0.000   3.288
 -0.000  -0.000  -0.063   0.000   0.000  -0.480   0.514  -0.000   0.000   3.781  -0.000  -2.067   0.000  -0.000  -4.540   0.000
  0.009  -0.034   0.000   0.123  -0.498   0.000  -0.000   0.368  -2.575  -0.000   9.034   0.000  -1.350   3.303   0.000  -9.222
  0.000   0.000   0.038   0.000   0.000   0.358  -3.299   0.000  -0.000  -2.067   0.000   4.161  -0.000   0.000   3.218  -0.000
 -0.061   0.062  -0.000  -0.494   0.687  -0.000   0.000  -8.237   1.348   0.000  -1.350  -0.000   8.557  -2.280  -0.000   2.084
  0.020  -0.048  -0.000   0.078  -0.303  -0.000  -0.000   1.258  -5.145  -0.000   3.303   0.000  -2.280   6.096   0.000  -3.971
  0.000  -0.000   0.064  -0.000  -0.000   0.712  -1.962   0.000  -0.000  -4.540   0.000   3.218  -0.000   0.000   6.234  -0.000
 -0.007   0.031  -0.000  -0.164   0.553  -0.000   0.000  -1.272   3.288   0.000  -9.222  -0.000   2.084  -3.971  -0.000  10.412
  0.015  -0.110  -0.000   0.233  -0.181   0.000   0.000   1.705   1.165   0.000  -3.133  -0.000  -1.628  -1.188  -0.000   2.981
 -0.008   0.053   0.000  -0.034  -0.000  -0.000  -0.000  -0.076  -0.145  -0.000   0.520   0.000   0.070   0.201   0.000  -0.482


------------------------ aborting loop because EDIFF is reached ----------------------------------------


 


 total charge     
 
# of ion       s       p       d       tot
------------------------------------------
    1        0.367   6.408   5.372  12.147
    2        0.367   6.408   5.373  12.149
    3        0.367   6.408   5.372  12.147
    4        0.367   6.408   5.372  12.147
    5        1.609   3.414   0.000   5.022
    6        1.609   3.413   0.000   5.022
    7        1.609   3.413   0.000   5.022
    8        1.609   3.413   0.000   5.021
    9        1.590   3.484   0.000   5.073
   10        1.590   3.484   0.000   5.073
   11        1.590   3.484   0.000   5.073
   12        1.590   3.484   0.000   5.073
--------------------------------------------------
tot         14.263  53.219  21.489  88.971
 
    CHARGE:  cpu time    0.0071: real time    0.0072
    FORLOC:  cpu time    0.0012: real time    0.0012
    FORNL :  cpu time    0.0412: real time    0.0458
    STRESS:  cpu time    0.1404: real time    0.1409
    FORCOR:  cpu time    0.0192: real time    0.0192
    FORHAR:  cpu time    0.0075: real time    0.0075
    MIXING:  cpu time    0.0009: real time    0.0009
    OFIELD:  cpu time    0.0000: real time    0.0000

  FORCE on cell =-STRESS in cart. coord.  units (eV):
  Direction    XX          YY          ZZ          XY          YZ          ZX
  --------------------------------------------------------------------------------------
  Alpha Z   441.37612   441.37612   441.37612
  Ewald    -826.77294 -3225.09792 -3363.70171    -0.02063     0.13665     0.01447
  Hartree  2251.39763   827.29129   613.83909    -0.00817     0.08161     0.00524
  E(xc)    -547.20394  -549.49318  -549.27154    -0.00004     0.00019     0.00002
  Local   -2993.26602   728.76567  1131.03670     0.02731    -0.24951    -0.01809
  n-local  -338.22953  -349.79171  -336.92614    -0.00039    -0.00081     0.00093
  augment   428.86756   465.47534   440.53662     0.00056     0.01465    -0.00095
  Kinetic  1571.45229  1662.63496  1624.52169     0.00073     0.02215    -0.00006
  Fock        0.00000     0.00000     0.00000     0.00000     0.00000     0.00000
  -------------------------------------------------------------------------------------
  Total     -12.37884     1.16057     1.41084    -0.00063     0.00493     0.00156
  in kB    -157.35577    14.75285    17.93416    -0.00803     0.06270     0.01977
  external pressure =      -41.56 kB  Pullay stress =        0.00 kB


 VOLUME and BASIS-vectors are now :
 -----------------------------------------------------------------------------
  energy-cutoff  :      400.00
  volume of cell :      126.04
      direct lattice vectors                 reciprocal lattice vectors
     2.916331000  0.000000000  0.000000000     0.342896605  0.000000075 -0.000000073
    -0.000001000  4.580966000  0.000145000     0.000000000  0.218294570 -0.000006941
     0.000002000  0.000300000  9.434393000     0.000000000 -0.000003355  0.105995161

  length of vectors
     2.916331000  4.580966002  9.434393005     0.342896605  0.218294570  0.105995161


 FORCES acting on ions
    electron-ion (+dipol)            ewald-force                    non-local-force                 convergence-correction
 -----------------------------------------------------------------------------------------------
   -.178E-02 0.736E+02 -.175E+03   0.265E-02 -.713E+02 0.170E+03   -.562E-03 -.229E+01 0.523E+01   -.629E-04 -.398E-02 -.654E-01
   0.122E-01 -.736E+02 0.175E+03   -.114E-01 0.713E+02 -.170E+03   -.105E-02 0.229E+01 -.522E+01   0.184E-05 0.210E-01 0.147E-01
   -.459E-01 0.738E+02 0.175E+03   0.468E-01 -.715E+02 -.170E+03   0.519E-03 -.229E+01 -.523E+01   0.944E-05 -.182E-01 0.789E-02
   -.339E-01 -.735E+02 -.175E+03   0.341E-01 0.712E+02 0.170E+03   0.591E-03 0.228E+01 0.523E+01   0.143E-03 0.170E-01 0.876E-01
   0.385E-01 -.188E+03 0.284E+03   -.431E-01 0.199E+03 -.299E+03   0.207E-02 -.106E+02 0.151E+02   0.465E-03 -.945E-02 0.269E-01
   0.957E-02 -.188E+03 -.284E+03   -.113E-01 0.199E+03 0.299E+03   0.600E-03 -.106E+02 -.151E+02   0.368E-03 0.957E-03 -.465E-01
   0.486E-02 0.188E+03 0.284E+03   -.581E-02 -.199E+03 -.299E+03   -.139E-03 0.106E+02 0.151E+02   0.495E-03 -.130E-01 -.337E-01
   0.177E-01 0.188E+03 -.284E+03   -.200E-01 -.199E+03 0.299E+03   0.114E-02 0.106E+02 -.151E+02   0.220E-03 0.991E-02 0.154E-01
   -.209E-01 -.518E+02 0.136E+03   0.242E-01 0.477E+02 -.147E+03   -.278E-02 0.405E+01 0.111E+02   -.157E-03 0.326E-01 0.337E-01
   0.720E-03 0.515E+02 0.135E+03   -.751E-03 -.475E+02 -.146E+03   0.529E-03 -.406E+01 0.111E+02   -.926E-04 0.520E-02 -.101E-01
   0.185E-01 -.517E+02 -.136E+03   -.211E-01 0.477E+02 0.147E+03   0.282E-02 0.404E+01 -.111E+02   0.441E-05 -.363E-01 0.648E-01
   -.470E-02 0.517E+02 -.136E+03   0.574E-02 -.477E+02 0.147E+03   -.305E-03 -.405E+01 -.111E+02   -.163E-03 -.572E-02 -.315E-01
 -----------------------------------------------------------------------------------------------
   -.520E-02 0.325E-01 -.629E-01   0.112E-13 -.853E-13 0.284E-13   0.342E-02 -.288E-01 -.770E-03   0.123E-02 -.377E-05 0.638E-01
 
 
 POSITION                                       TOTAL-FORCE (eV/Angst)
 -----------------------------------------------------------------------------------
      0.72906      0.75414      8.00356         0.000288     -0.000477      0.001992
      2.18732      3.82688      1.43109        -0.000262      0.008168     -0.005016
      2.18723      3.04517      6.14762         0.001526     -0.014555      0.007371
      0.72904      1.53644      3.28644         0.000907      0.000618      0.012100
      0.72914      3.53148      5.33649        -0.002063      0.003254     -0.006561
      2.18725      1.24092      8.81506        -0.000682     -0.002711     -0.000985
      0.72916      3.34016      0.61959        -0.000546     -0.002677      0.001828
      2.18724      1.04973      4.09808        -0.000827      0.003191     -0.007443
      0.72906      0.48127      1.97899         0.000402      0.009614      0.007699
      0.72905      1.80961      6.69641         0.000450     -0.009617      0.003168
      2.18727      2.77183      2.73868         0.000194      0.009887     -0.010497
      2.18718      4.09997      7.45523         0.000613     -0.004694     -0.003657
 -----------------------------------------------------------------------------------
    total drift:                               -0.000542      0.003624      0.000104


--------------------------------------------------------------------------------------------------------



  FREE ENERGIE OF THE ION-ELECTRON SYSTEM (eV)
  ---------------------------------------------------
  free  energy   TOTEN  =       -91.64317993 eV

  energy  without entropy=      -91.64317993  energy(sigma->0) =      -91.64317993
 
 d Force = 0.7822832E-04[ 0.409E-04, 0.116E-03]  d Energy = 0.7865359E-04-0.425E-06
 d Force =-0.7973479E+00[-0.797E+00,-0.798E+00]  d Ewald  =-0.7973480E+00 0.118E-06


--------------------------------------------------------------------------------------------------------


    POTLOK:  cpu time    0.1590: real time    0.1924


--------------------------------------------------------------------------------------------------------


 stress matrix after NEB project (eV)
    -12.37884     -0.00063      0.00156
     -0.00063      1.16057      0.00493
      0.00156      0.00493      1.41084
  FORCES: max atom, RMS     0.016386    0.009808
  FORCE total and by dimension    0.033976    0.014555
  Stress total and by dimension   12.512918   12.378839
 Conjugate gradient step on ions:
 trial-energy change:   -0.000079  1 .order   -0.000078   -0.000116   -0.000041
  (g-gl).g = 0.160E-03      g.g   = 0.200E-03  gl.gl    = 0.513E-03
 g(Force)  = 0.200E-03   g(Stress)= 0.000E+00 ortho     =-0.787E-06
 gamma     =   0.31113
 trial     =   0.57808
 opt step  =   0.89497  (harmonic =   0.89497) maximal distance =0.00156060
 next E    =   -91.643191   (d E  =  -0.00009)


--------------------------------------------------------------------------------------------------------


  
 reached required accuracy - stopping structural energy minimisation
 writing wavefunctions
     LOOP+:  cpu time    1.8412: real time    2.5935
    4ORBIT:  cpu time    0.0000: real time    0.0000
 


 total charge     
 
# of ion       s       p       d       tot
------------------------------------------
    1        0.367   6.408   5.372  12.147
    2        0.367   6.408   5.373  12.149
    3        0.367   6.408   5.372  12.147
    4        0.367   6.408   5.372  12.147
    5        1.609   3.414   0.000   5.022
    6        1.609   3.413   0.000   5.022
    7        1.609   3.413   0.000   5.022
    8        1.609   3.413   0.000   5.021
    9        1.590   3.484   0.000   5.073
   10        1.590   3.484   0.000   5.073
   11        1.590   3.484   0.000   5.073
   12        1.590   3.484   0.000   5.073
--------------------------------------------------
tot         14.263  53.219  21.489  88.971
 

 total amount of memory used by VASP MPI-rank0    35155. kBytes
=======================================================================

   base      :      30000. kBytes
   nonlr-proj:       2229. kBytes
   fftplans  :       1043. kBytes
   grid      :       1691. kBytes
   one-center:         46. kBytes
   wavefun   :        146. kBytes
 
  
  
 General timing and accounting informations for this job:
 ========================================================
  
                  Total CPU time used (sec):      232.898
                            User time (sec):      211.037
                          System time (sec):       21.861
                         Elapsed time (sec):      272.967
  
                   Maximum memory used (kb):       63472.
                   Average memory used (kb):           0.
  
                          Minor page faults:        56318
                          Major page faults:           13
                 Voluntary context switches:         3698
