PROCAR lm decomposed
# of k-points:    1         # of bands:   60         # of ions:   12

 k-point     1 :    0.00000000 0.00000000 0.00000000     weight = 1.00000000

band     1 # energy  -44.32859313 # occ.  2.00000000
 
ion      s     py     pz     px    dxy    dyz    dz2    dxz  x2-y2    tot
    1  0.000  0.000  0.000  0.078  0.000  0.000  0.000  0.000  0.000  0.078
    2  0.000  0.000  0.000  0.444  0.000  0.000  0.000  0.000  0.000  0.444
    3  0.000  0.000  0.000  0.100  0.000  0.000  0.000  0.000  0.000  0.100
    4  0.000  0.000  0.000  0.372  0.000  0.000  0.000  0.000  0.000  0.372
    5  0.000  0.000  0.000  0.000  0.000  0.000  0.000  0.000  0.000  0.000
    6  0.000  0.000  0.000  0.000  0.000  0.000  0.000  0.000  0.000  0.000
    7  0.000  0.000  0.000  0.001  0.000  0.000  0.000  0.000  0.000  0.001
    8  0.000  0.000  0.000  0.001  0.000  0.000  0.000  0.000  0.000  0.001
    9  0.000  0.000  0.000  0.000  0.000  0.000  0.000  0.000  0.000  0.000
   10  0.000  0.000  0.000  0.000  0.000  0.000  0.000  0.000  0.000  0.000
   11  0.000  0.000  0.000  0.000  0.000  0.000  0.000  0.000  0.000  0.000
   12  0.000  0.000  0.000  0.000  0.000  0.000  0.000  0.000  0.000  0.000
tot    0.000  0.000  0.000  0.996  0.000  0.000  0.000  0.000  0.000  0.996
 
band     2 # energy  -44.32704057 # occ.  2.00000000
 
ion      s     py     pz     px    dxy    dyz    dz2    dxz  x2-y2    tot
    1  0.000  0.000  0.000  0.341  0.000  0.000  0.000  0.000  0.000  0.341
    2  0.000  0.000  0.000  0.101  0.000  0.000  0.000  0.000  0.000  0.101
    3  0.000  0.000  0.000  0.475  0.000  0.000  0.000  0.000  0.000  0.475
    4  0.000  0.000  0.000  0.076  0.000  0.000  0.000  0.000  0.000  0.076
    5  0.000  0.000  0.000  0.001  0.000  0.000  0.000  0.000  0.000  0.001
    6  0.000  0.000  0.000  0.001  0.000  0.000  0.000  0.000  0.000  0.001
    7  0.000  0.000  0.000  0.000  0.000  0.000  0.000  0.000  0.000  0.000
    8  0.000  0.000  0.000  0.000  0.000  0.000  0.000  0.000  0.000  0.000
    9  0.000  0.000  0.000  0.000  0.000  0.000  0.000  0.000  0.000  0.000
   10  0.000  0.000  0.000  0.000  0.000  0.000  0.000  0.000  0.000  0.000
   11  0.000  0.000  0.000  0.000  0.000  0.000  0.000  0.000  0.000  0.000
   12  0.000  0.000  0.000  0.000  0.000  0.000  0.000  0.000  0.000  0.000
tot    0.000  0.000  0.000  0.996  0.000  0.000  0.000  0.000  0.000  0.996
 
band     3 # energy  -44.32067416 # occ.  2.00000000
 
ion      s     py     pz     px    dxy    dyz    dz2    dxz  x2-y2    tot
    1  0.000  0.000  0.000  0.075  0.000  0.000  0.000  0.000  0.000  0.075
    2  0.000  0.000  0.000  0.390  0.000  0.000  0.000  0.000  0.000  0.390
    3  0.000  0.000  0.000  0.050  0.000  0.000  0.000  0.000  0.000  0.050
    4  0.000  0.000  0.000  0.479  0.000  0.000  0.000  0.000  0.000  0.479
    5  0.000  0.000  0.000  0.000  0.000  0.000  0.000  0.000  0.000  0.000
    6  0.000  0.000  0.000  0.000  0.000  0.000  0.000  0.000  0.000  0.000
    7  0.000  0.000  0.000  0.001  0.000  0.000  0.000  0.000  0.000  0.001
    8  0.000  0.000  0.000  0.001  0.000  0.000  0.000  0.000  0.000  0.001
    9  0.000  0.000  0.000  0.000  0.000  0.000  0.000  0.000  0.000  0.000
   10  0.000  0.000  0.000  0.000  0.000  0.000  0.000  0.000  0.000  0.000
   11  0.000  0.000  0.000  0.000  0.000  0.000  0.000  0.000  0.000  0.000
   12  0.000  0.000  0.000  0.000  0.000  0.000  0.000  0.000  0.000  0.000
tot    0.000  0.000  0.000  0.996  0.000  0.000  0.000  0.000  0.000  0.996
 
band     4 # energy  -44.31927275 # occ.  2.00000000
 
ion      s     py     pz     px    dxy    dyz    dz2    dxz  x2-y2    tot
    1  0.000  0.000  0.000  0.499  0.000  0.000  0.000  0.000  0.000  0.499
    2  0.000  0.000  0.000  0.059  0.000  0.000  0.000  0.000  0.000  0.059
    3  0.000  0.000  0.000  0.369  0.000  0.000  0.000  0.000  0.000  0.369
    4  0.000  0.000  0.000  0.066  0.000  0.000  0.000  0.000  0.000  0.066
    5  0.000  0.000  0.000  0.001  0.000  0.000  0.000  0.000  0.000  0.001
    6  0.000  0.000  0.000  0.001  0.000  0.000  0.000  0.000  0.000  0.001
    7  0.000  0.000  0.000  0.000  0.000  0.000  0.000  0.000  0.000  0.000
    8  0.000  0.000  0.000  0.000  0.000  0.000  0.000  0.000  0.000  0.000
    9  0.000  0.000  0.000  0.000  0.000  0.000  0.000  0.000  0.000  0.000
   10  0.000  0.000  0.000  0.000  0.000  0.000  0.000  0.000  0.000  0.000
   11  0.000  0.000  0.000  0.000  0.000  0.000  0.000  0.000  0.000  0.000
   12  0.000  0.000  0.000  0.000  0.000  0.000  0.000  0.000  0.000  0.000
tot    0.000  0.000  0.000  0.996  0.000  0.000  0.000  0.000  0.000  0.996
 
band     5 # energy  -44.21395576 # occ.  2.00000000
 
ion      s     py     pz     px    dxy    dyz    dz2    dxz  x2-y2    tot
    1  0.000  0.009  0.156  0.000  0.000  0.000  0.000  0.000  0.000  0.165
    2  0.000  0.017  0.313  0.000  0.000  0.000  0.000  0.000  0.000  0.330
    3  0.000  0.009  0.155  0.000  0.000  0.000  0.000  0.000  0.000  0.164
    4  0.000  0.017  0.315  0.000  0.000  0.000  0.000  0.000  0.000  0.332
    5  0.000  0.000  0.000  0.000  0.000  0.000  0.000  0.000  0.000  0.000
    6  0.000  0.000  0.000  0.000  0.000  0.000  0.000  0.000  0.000  0.000
    7  0.000  0.000  0.000  0.000  0.000  0.000  0.000  0.000  0.000  0.000
    8  0.000  0.000  0.000  0.000  0.000  0.000  0.000  0.000  0.000  0.000
    9  0.001  0.000  0.000  0.000  0.000  0.000  0.000  0.000  0.000  0.001
   10  0.000  0.000  0.000  0.000  0.000  0.000  0.000  0.000  0.000  0.001
   11  0.001  0.000  0.000  0.000  0.000  0.000  0.000  0.000  0.000  0.001
   12  0.000  0.000  0.000  0.000  0.000  0.000  0.000  0.000  0.000  0.001
tot    0.003  0.053  0.940  0.000  0.000  0.000  0.000  0.000  0.000  0.996
 
band     6 # energy  -44.20829189 # occ.  2.00000000
 
ion      s     py     pz     px    dxy    dyz    dz2    dxz  x2-y2    tot
    1  0.000  0.017  0.316  0.000  0.000  0.000  0.000  0.000  0.000  0.333
    2  0.000  0.008  0.155  0.000  0.000  0.000  0.000  0.000  0.000  0.163
    3  0.000  0.017  0.312  0.000  0.000  0.000  0.000  0.000  0.000  0.329
    4  0.000  0.009  0.157  0.000  0.000  0.000  0.000  0.000  0.000  0.166
    5  0.000  0.000  0.000  0.000  0.000  0.000  0.000  0.000  0.000  0.000
    6  0.000  0.000  0.000  0.000  0.000  0.000  0.000  0.000  0.000  0.000
    7  0.000  0.000  0.000  0.000  0.000  0.000  0.000  0.000  0.000  0.000
    8  0.000  0.000  0.000  0.000  0.000  0.000  0.000  0.000  0.000  0.000
    9  0.000  0.000  0.000  0.000  0.000  0.000  0.000  0.000  0.000  0.001
   10  0.001  0.000  0.000  0.000  0.000  0.000  0.000  0.000  0.000  0.001
   11  0.000  0.000  0.000  0.000  0.000  0.000  0.000  0.000  0.000  0.001
   12  0.001  0.000  0.000  0.000  0.000  0.000  0.000  0.000  0.000  0.001
tot    0.003  0.052  0.941  0.000  0.000  0.000  0.000  0.000  0.000  0.996
 
band     7 # energy  -44.19990618 # occ.  2.00000000
 
ion      s     py     pz     px    dxy    dyz    dz2    dxz  x2-y2    tot
    1  0.000  0.011  0.162  0.000  0.000  0.000  0.000  0.000  0.000  0.173
    2  0.000  0.021  0.302  0.000  0.000  0.000  0.000  0.000  0.000  0.323
    3  0.000  0.011  0.165  0.000  0.000  0.000  0.000  0.000  0.000  0.176
    4  0.000  0.021  0.299  0.000  0.000  0.000  0.000  0.000  0.000  0.319
    5  0.000  0.000  0.000  0.000  0.000  0.000  0.000  0.000  0.000  0.000
    6  0.000  0.000  0.000  0.000  0.000  0.000  0.000  0.000  0.000  0.000
    7  0.000  0.000  0.000  0.000  0.000  0.000  0.000  0.000  0.000  0.000
    8  0.000  0.000  0.000  0.000  0.000  0.000  0.000  0.000  0.000  0.000
    9  0.001  0.000  0.000  0.000  0.000  0.000  0.000  0.000  0.000  0.001
   10  0.000  0.000  0.000  0.000  0.000  0.000  0.000  0.000  0.000  0.001
   11  0.001  0.000  0.000  0.000  0.000  0.000  0.000  0.000  0.000  0.001
   12  0.000  0.000  0.000  0.000  0.000  0.000  0.000  0.000  0.000  0.001
tot    0.003  0.065  0.928  0.000  0.000  0.000  0.000  0.000  0.000  0.996
 
band     8 # energy  -44.19340469 # occ.  2.00000000
 
ion      s     py     pz     px    dxy    dyz    dz2    dxz  x2-y2    tot
    1  0.000  0.021  0.300  0.000  0.000  0.000  0.000  0.000  0.000  0.320
    2  0.000  0.011  0.164  0.000  0.000  0.000  0.000  0.000  0.000  0.175
    3  0.000  0.020  0.302  0.000  0.000  0.000  0.000  0.000  0.000  0.322
    4  0.000  0.011  0.163  0.000  0.000  0.000  0.000  0.000  0.000  0.174
    5  0.000  0.000  0.000  0.000  0.000  0.000  0.000  0.000  0.000  0.000
    6  0.000  0.000  0.000  0.000  0.000  0.000  0.000  0.000  0.000  0.000
    7  0.000  0.000  0.000  0.000  0.000  0.000  0.000  0.000  0.000  0.000
    8  0.000  0.000  0.000  0.000  0.000  0.000  0.000  0.000  0.000  0.000
    9  0.000  0.000  0.000  0.000  0.000  0.000  0.000  0.000  0.000  0.001
   10  0.001  0.000  0.000  0.000  0.000  0.000  0.000  0.000  0.000  0.001
   11  0.000  0.000  0.000  0.000  0.000  0.000  0.000  0.000  0.000  0.001
   12  0.001  0.000  0.000  0.000  0.000  0.000  0.000  0.000  0.000  0.001
tot    0.003  0.064  0.930  0.000  0.000  0.000  0.000  0.000  0.000  0.996
 
band     9 # energy  -43.62306684 # occ.  2.00000000
 
ion      s     py     pz     px    dxy    dyz    dz2    dxz  x2-y2    tot
    1  0.000  0.000  0.000  0.000  0.000  0.000  0.000  0.000  0.000  0.000
    2  0.000  0.475  0.032  0.000  0.000  0.000  0.000  0.000  0.000  0.507
    3  0.000  0.000  0.000  0.000  0.000  0.000  0.000  0.000  0.000  0.000
    4  0.000  0.453  0.031  0.000  0.000  0.000  0.000  0.000  0.000  0.484
    5  0.000  0.000  0.000  0.000  0.000  0.000  0.000  0.000  0.000  0.000
    6  0.000  0.000  0.000  0.000  0.000  0.000  0.000  0.000  0.000  0.000
    7  0.001  0.000  0.000  0.000  0.000  0.000  0.000  0.000  0.000  0.001
    8  0.000  0.000  0.000  0.000  0.000  0.000  0.000  0.000  0.000  0.001
    9  0.001  0.000  0.000  0.000  0.000  0.000  0.000  0.000  0.000  0.001
   10  0.000  0.000  0.000  0.000  0.000  0.000  0.000  0.000  0.000  0.000
   11  0.001  0.000  0.000  0.000  0.000  0.000  0.000  0.000  0.000  0.001
   12  0.000  0.000  0.000  0.000  0.000  0.000  0.000  0.000  0.000  0.000
tot    0.003  0.927  0.064  0.000  0.000  0.000  0.000  0.000  0.000  0.994
 
band    10 # energy  -43.62078533 # occ.  2.00000000
 
ion      s     py     pz     px    dxy    dyz    dz2    dxz  x2-y2    tot
    1  0.000  0.448  0.031  0.000  0.000  0.000  0.000  0.000  0.000  0.479
    2  0.000  0.000  0.000  0.000  0.000  0.000  0.000  0.000  0.000  0.000
    3  0.000  0.480  0.032  0.000  0.000  0.000  0.000  0.000  0.000  0.512
    4  0.000  0.000  0.000  0.000  0.000  0.000  0.000  0.000  0.000  0.000
    5  0.001  0.000  0.000  0.000  0.000  0.000  0.000  0.000  0.000  0.001
    6  0.000  0.000  0.000  0.000  0.000  0.000  0.000  0.000  0.000  0.001
    7  0.000  0.000  0.000  0.000  0.000  0.000  0.000  0.000  0.000  0.000
    8  0.000  0.000  0.000  0.000  0.000  0.000  0.000  0.000  0.000  0.000
    9  0.000  0.000  0.000  0.000  0.000  0.000  0.000  0.000  0.000  0.000
   10  0.001  0.000  0.000  0.000  0.000  0.000  0.000  0.000  0.000  0.001
   11  0.000  0.000  0.000  0.000  0.000  0.000  0.000  0.000  0.000  0.000
   12  0.001  0.000  0.000  0.000  0.000  0.000  0.000  0.000  0.000  0.001
tot    0.003  0.928  0.064  0.000  0.000  0.000  0.000  0.000  0.000  0.994
 
band    11 # energy  -43.59522127 # occ.  2.00000000
 
ion      s     py     pz     px    dxy    dyz    dz2    dxz  x2-y2    tot
    1  0.000  0.001  0.000  0.000  0.000  0.000  0.000  0.000  0.000  0.001
    2  0.000  0.459  0.025  0.000  0.000  0.000  0.000  0.000  0.000  0.484
    3  0.000  0.001  0.000  0.000  0.000  0.000  0.000  0.000  0.000  0.001
    4  0.000  0.480  0.026  0.000  0.000  0.000  0.000  0.000  0.000  0.507
    5  0.000  0.000  0.000  0.000  0.000  0.000  0.000  0.000  0.000  0.000
    6  0.000  0.000  0.000  0.000  0.000  0.000  0.000  0.000  0.000  0.000
    7  0.000  0.000  0.000  0.000  0.000  0.000  0.000  0.000  0.000  0.001
    8  0.000  0.000  0.000  0.000  0.000  0.000  0.000  0.000  0.000  0.001
    9  0.000  0.000  0.000  0.000  0.000  0.000  0.000  0.000  0.000  0.000
   10  0.000  0.000  0.000  0.000  0.000  0.000  0.000  0.000  0.000  0.000
   11  0.000  0.000  0.000  0.000  0.000  0.000  0.000  0.000  0.000  0.000
   12  0.000  0.000  0.000  0.000  0.000  0.000  0.000  0.000  0.000  0.000
tot    0.001  0.942  0.052  0.000  0.000  0.000  0.000  0.000  0.000  0.995
 
band    12 # energy  -43.59293617 # occ.  2.00000000
 
ion      s     py     pz     px    dxy    dyz    dz2    dxz  x2-y2    tot
    1  0.000  0.485  0.027  0.000  0.000  0.000  0.000  0.000  0.000  0.512
    2  0.000  0.001  0.000  0.000  0.000  0.000  0.000  0.000  0.000  0.001
    3  0.000  0.454  0.024  0.000  0.000  0.000  0.000  0.000  0.000  0.479
    4  0.000  0.001  0.000  0.000  0.000  0.000  0.000  0.000  0.000  0.001
    5  0.000  0.000  0.000  0.000  0.000  0.000  0.000  0.000  0.000  0.001
    6  0.000  0.000  0.000  0.000  0.000  0.000  0.000  0.000  0.000  0.001
    7  0.000  0.000  0.000  0.000  0.000  0.000  0.000  0.000  0.000  0.000
    8  0.000  0.000  0.000  0.000  0.000  0.000  0.000  0.000  0.000  0.000
    9  0.000  0.000  0.000  0.000  0.000  0.000  0.000  0.000  0.000  0.000
   10  0.000  0.000  0.000  0.000  0.000  0.000  0.000  0.000  0.000  0.000
   11  0.000  0.000  0.000  0.000  0.000  0.000  0.000  0.000  0.000  0.000
   12  0.000  0.000  0.000  0.000  0.000  0.000  0.000  0.000  0.000  0.000
tot    0.001  0.942  0.052  0.000  0.000  0.000  0.000  0.000  0.000  0.995
 
band    13 # energy  -15.88461857 # occ.  2.00000000
 
ion      s     py     pz     px    dxy    dyz    dz2    dxz  x2-y2    tot
    1  0.027  0.001  0.000  0.000  0.000  0.000  0.000  0.000  0.003  0.031
    2  0.027  0.001  0.000  0.000  0.000  0.000  0.000  0.000  0.003  0.031
    3  0.027  0.001  0.000  0.000  0.000  0.000  0.000  0.000  0.003  0.031
    4  0.027  0.001  0.000  0.000  0.000  0.000  0.000  0.000  0.003  0.031
    5  0.102  0.001  0.001  0.000  0.000  0.000  0.000  0.000  0.000  0.103
    6  0.100  0.001  0.001  0.000  0.000  0.000  0.000  0.000  0.000  0.102
    7  0.101  0.001  0.001  0.000  0.000  0.000  0.000  0.000  0.000  0.102
    8  0.101  0.001  0.001  0.000  0.000  0.000  0.000  0.000  0.000  0.102
    9  0.078  0.000  0.000  0.000  0.000  0.000  0.000  0.000  0.000  0.078
   10  0.078  0.000  0.000  0.000  0.000  0.000  0.000  0.000  0.000  0.078
   11  0.078  0.000  0.000  0.000  0.000  0.000  0.000  0.000  0.000  0.078
   12  0.078  0.000  0.000  0.000  0.000  0.000  0.000  0.000  0.000  0.078
tot    0.825  0.005  0.004  0.000  0.000  0.000  0.002  0.000  0.011  0.846
 
band    14 # energy  -15.51340240 # occ.  2.00000000
 
ion      s     py     pz     px    dxy    dyz    dz2    dxz  x2-y2    tot
    1  0.027  0.001  0.000  0.000  0.000  0.000  0.000  0.000  0.002  0.031
    2  0.027  0.001  0.000  0.000  0.000  0.000  0.000  0.000  0.003  0.031
    3  0.027  0.001  0.000  0.000  0.000  0.000  0.000  0.000  0.003  0.032
    4  0.027  0.001  0.000  0.000  0.000  0.000  0.000  0.000  0.002  0.031
    5  0.084  0.001  0.002  0.000  0.000  0.000  0.000  0.000  0.000  0.087
    6  0.082  0.001  0.002  0.000  0.000  0.000  0.000  0.000  0.000  0.084
    7  0.084  0.001  0.002  0.000  0.000  0.000  0.000  0.000  0.000  0.086
    8  0.083  0.001  0.002  0.000  0.000  0.000  0.000  0.000  0.000  0.085
    9  0.100  0.000  0.000  0.000  0.000  0.000  0.000  0.000  0.000  0.100
   10  0.100  0.000  0.000  0.000  0.000  0.000  0.000  0.000  0.000  0.100
   11  0.099  0.000  0.000  0.000  0.000  0.000  0.000  0.000  0.000  0.100
   12  0.099  0.000  0.000  0.000  0.000  0.000  0.000  0.000  0.000  0.099
tot    0.841  0.005  0.008  0.000  0.000  0.000  0.002  0.000  0.010  0.866
 
band    15 # energy  -15.25269723 # occ.  2.00000000
 
ion      s     py     pz     px    dxy    dyz    dz2    dxz  x2-y2    tot
    1  0.013  0.000  0.005  0.000  0.000  0.004  0.003  0.000  0.009  0.032
    2  0.012  0.000  0.005  0.000  0.000  0.004  0.003  0.000  0.009  0.032
    3  0.012  0.000  0.005  0.000  0.000  0.004  0.003  0.000  0.009  0.032
    4  0.012  0.000  0.005  0.000  0.000  0.004  0.003  0.000  0.009  0.032
    5  0.154  0.001  0.001  0.000  0.000  0.000  0.000  0.000  0.000  0.156
    6  0.156  0.001  0.001  0.000  0.000  0.000  0.000  0.000  0.000  0.158
    7  0.154  0.001  0.001  0.000  0.000  0.000  0.000  0.000  0.000  0.156
    8  0.155  0.001  0.001  0.000  0.000  0.000  0.000  0.000  0.000  0.157
    9  0.032  0.000  0.000  0.000  0.000  0.000  0.000  0.000  0.000  0.032
   10  0.031  0.000  0.000  0.000  0.000  0.000  0.000  0.000  0.000  0.032
   11  0.032  0.000  0.000  0.000  0.000  0.000  0.000  0.000  0.000  0.033
   12  0.033  0.000  0.000  0.000  0.000  0.000  0.000  0.000  0.000  0.033
tot    0.796  0.004  0.023  0.000  0.000  0.014  0.011  0.000  0.036  0.885
 
band    16 # energy  -14.82695656 # occ.  2.00000000
 
ion      s     py     pz     px    dxy    dyz    dz2    dxz  x2-y2    tot
    1  0.010  0.000  0.004  0.000  0.000  0.005  0.004  0.000  0.011  0.035
    2  0.010  0.000  0.004  0.000  0.000  0.005  0.004  0.000  0.011  0.035
    3  0.010  0.000  0.004  0.000  0.000  0.005  0.004  0.000  0.011  0.035
    4  0.010  0.000  0.004  0.000  0.000  0.005  0.004  0.000  0.011  0.035
    5  0.145  0.001  0.002  0.000  0.000  0.000  0.000  0.000  0.000  0.148
    6  0.145  0.001  0.002  0.000  0.000  0.000  0.000  0.000  0.000  0.148
    7  0.146  0.001  0.002  0.000  0.000  0.000  0.000  0.000  0.000  0.148
    8  0.146  0.001  0.002  0.000  0.000  0.000  0.000  0.000  0.000  0.148
    9  0.047  0.000  0.000  0.000  0.000  0.000  0.000  0.000  0.000  0.048
   10  0.047  0.000  0.000  0.000  0.000  0.000  0.000  0.000  0.000  0.047
   11  0.048  0.000  0.000  0.000  0.000  0.000  0.000  0.000  0.000  0.048
   12  0.048  0.000  0.000  0.000  0.000  0.000  0.000  0.000  0.000  0.048
tot    0.813  0.005  0.023  0.000  0.000  0.022  0.016  0.000  0.043  0.922
 
band    17 # energy  -13.80251811 # occ.  2.00000000
 
ion      s     py     pz     px    dxy    dyz    dz2    dxz  x2-y2    tot
    1  0.004  0.009  0.000  0.000  0.000  0.005  0.002  0.000  0.000  0.021
    2  0.005  0.010  0.000  0.000  0.000  0.006  0.002  0.000  0.000  0.022
    3  0.004  0.009  0.000  0.000  0.000  0.005  0.002  0.000  0.000  0.021
    4  0.005  0.010  0.000  0.000  0.000  0.006  0.002  0.000  0.000  0.022
    5  0.050  0.000  0.000  0.000  0.000  0.000  0.000  0.000  0.000  0.050
    6  0.048  0.000  0.000  0.000  0.000  0.000  0.000  0.000  0.000  0.048
    7  0.052  0.000  0.000  0.000  0.000  0.000  0.000  0.000  0.000  0.052
    8  0.052  0.000  0.000  0.000  0.000  0.000  0.000  0.000  0.000  0.052
    9  0.156  0.000  0.001  0.000  0.000  0.000  0.000  0.000  0.000  0.157
   10  0.149  0.000  0.001  0.000  0.000  0.000  0.000  0.000  0.000  0.149
   11  0.155  0.000  0.001  0.000  0.000  0.000  0.000  0.000  0.000  0.156
   12  0.144  0.000  0.001  0.000  0.000  0.000  0.000  0.000  0.000  0.145
tot    0.823  0.039  0.003  0.000  0.000  0.022  0.008  0.000  0.000  0.896
 
band    18 # energy  -13.79207311 # occ.  2.00000000
 
ion      s     py     pz     px    dxy    dyz    dz2    dxz  x2-y2    tot
    1  0.004  0.010  0.000  0.000  0.000  0.007  0.003  0.000  0.000  0.024
    2  0.003  0.009  0.000  0.000  0.000  0.007  0.002  0.000  0.000  0.022
    3  0.004  0.010  0.000  0.000  0.000  0.007  0.003  0.000  0.000  0.023
    4  0.003  0.009  0.000  0.000  0.000  0.007  0.002  0.000  0.000  0.022
    5  0.036  0.000  0.000  0.000  0.000  0.000  0.000  0.000  0.000  0.036
    6  0.034  0.000  0.000  0.000  0.000  0.000  0.000  0.000  0.000  0.034
    7  0.033  0.000  0.000  0.000  0.000  0.000  0.000  0.000  0.000  0.033
    8  0.033  0.000  0.000  0.000  0.000  0.000  0.000  0.000  0.000  0.033
    9  0.163  0.000  0.001  0.000  0.000  0.000  0.000  0.000  0.000  0.163
   10  0.174  0.000  0.001  0.000  0.000  0.000  0.000  0.000  0.000  0.175
   11  0.162  0.000  0.001  0.000  0.000  0.000  0.000  0.000  0.000  0.163
   12  0.170  0.000  0.001  0.000  0.000  0.000  0.000  0.000  0.000  0.171
tot    0.818  0.039  0.004  0.000  0.000  0.029  0.010  0.000  0.000  0.899
 
band    19 # energy  -13.73610335 # occ.  2.00000000
 
ion      s     py     pz     px    dxy    dyz    dz2    dxz  x2-y2    tot
    1  0.000  0.000  0.011  0.000  0.000  0.005  0.001  0.000  0.006  0.023
    2  0.000  0.000  0.010  0.000  0.000  0.004  0.001  0.000  0.006  0.021
    3  0.000  0.000  0.011  0.000  0.000  0.005  0.001  0.000  0.006  0.024
    4  0.000  0.000  0.010  0.000  0.000  0.004  0.001  0.000  0.006  0.021
    5  0.095  0.000  0.000  0.000  0.000  0.000  0.000  0.000  0.000  0.095
    6  0.098  0.000  0.000  0.000  0.000  0.000  0.000  0.000  0.000  0.098
    7  0.085  0.000  0.000  0.000  0.000  0.000  0.000  0.000  0.000  0.085
    8  0.086  0.000  0.000  0.000  0.000  0.000  0.000  0.000  0.000  0.086
    9  0.105  0.000  0.001  0.000  0.000  0.000  0.000  0.000  0.000  0.106
   10  0.114  0.000  0.001  0.000  0.000  0.000  0.000  0.000  0.000  0.115
   11  0.106  0.000  0.001  0.000  0.000  0.000  0.000  0.000  0.000  0.107
   12  0.119  0.000  0.001  0.000  0.000  0.000  0.000  0.000  0.000  0.120
tot    0.810  0.002  0.045  0.000  0.000  0.018  0.003  0.000  0.024  0.902
 
band    20 # energy  -13.72655297 # occ.  2.00000000
 
ion      s     py     pz     px    dxy    dyz    dz2    dxz  x2-y2    tot
    1  0.000  0.000  0.009  0.000  0.000  0.004  0.001  0.000  0.007  0.022
    2  0.000  0.000  0.010  0.000  0.000  0.005  0.001  0.000  0.008  0.025
    3  0.000  0.000  0.009  0.000  0.000  0.005  0.001  0.000  0.007  0.022
    4  0.000  0.000  0.010  0.000  0.000  0.005  0.001  0.000  0.008  0.025
    5  0.107  0.000  0.000  0.000  0.000  0.000  0.000  0.000  0.000  0.107
    6  0.110  0.000  0.000  0.000  0.000  0.000  0.000  0.000  0.000  0.110
    7  0.120  0.000  0.000  0.000  0.000  0.000  0.000  0.000  0.000  0.120
    8  0.120  0.000  0.000  0.000  0.000  0.000  0.000  0.000  0.000  0.120
    9  0.094  0.000  0.000  0.000  0.000  0.000  0.000  0.000  0.000  0.095
   10  0.081  0.000  0.000  0.000  0.000  0.000  0.000  0.000  0.000  0.082
   11  0.094  0.000  0.001  0.000  0.000  0.000  0.000  0.000  0.000  0.095
   12  0.085  0.000  0.000  0.000  0.000  0.000  0.000  0.000  0.000  0.086
tot    0.811  0.004  0.041  0.000  0.000  0.019  0.004  0.000  0.031  0.909
 
band    21 # energy   -2.82286109 # occ.  2.00000000
 
ion      s     py     pz     px    dxy    dyz    dz2    dxz  x2-y2    tot
    1  0.018  0.000  0.005  0.000  0.000  0.012  0.000  0.000  0.025  0.061
    2  0.018  0.000  0.005  0.000  0.000  0.012  0.000  0.000  0.025  0.061
    3  0.018  0.000  0.005  0.000  0.000  0.012  0.000  0.000  0.026  0.062
    4  0.018  0.000  0.005  0.000  0.000  0.012  0.000  0.000  0.026  0.062
    5  0.004  0.034  0.030  0.000  0.000  0.000  0.000  0.000  0.000  0.067
    6  0.004  0.033  0.029  0.000  0.000  0.000  0.000  0.000  0.000  0.066
    7  0.004  0.033  0.029  0.000  0.000  0.000  0.000  0.000  0.000  0.066
    8  0.004  0.034  0.030  0.000  0.000  0.000  0.000  0.000  0.000  0.067
    9  0.000  0.053  0.006  0.000  0.000  0.000  0.000  0.000  0.000  0.060
   10  0.000  0.054  0.007  0.000  0.000  0.000  0.000  0.000  0.000  0.060
   11  0.000  0.054  0.007  0.000  0.000  0.000  0.000  0.000  0.000  0.060
   12  0.000  0.053  0.006  0.000  0.000  0.000  0.000  0.000  0.000  0.059
tot    0.090  0.347  0.162  0.000  0.000  0.049  0.002  0.000  0.103  0.752
 
band    22 # energy   -2.66190610 # occ.  2.00000000
 
ion      s     py     pz     px    dxy    dyz    dz2    dxz  x2-y2    tot
    1  0.000  0.004  0.001  0.000  0.000  0.005  0.033  0.000  0.043  0.086
    2  0.001  0.004  0.001  0.000  0.000  0.005  0.033  0.000  0.043  0.086
    3  0.000  0.004  0.001  0.000  0.000  0.005  0.033  0.000  0.042  0.086
    4  0.000  0.004  0.001  0.000  0.000  0.005  0.033  0.000  0.042  0.086
    5  0.003  0.026  0.040  0.000  0.000  0.000  0.000  0.000  0.000  0.069
    6  0.003  0.026  0.040  0.000  0.000  0.000  0.000  0.000  0.000  0.069
    7  0.003  0.027  0.040  0.000  0.000  0.000  0.000  0.000  0.000  0.070
    8  0.003  0.026  0.039  0.000  0.000  0.000  0.000  0.000  0.000  0.068
    9  0.000  0.036  0.018  0.000  0.000  0.000  0.000  0.000  0.000  0.055
   10  0.000  0.036  0.018  0.000  0.000  0.000  0.000  0.000  0.000  0.054
   11  0.000  0.035  0.018  0.000  0.000  0.000  0.000  0.000  0.000  0.053
   12  0.000  0.036  0.018  0.000  0.000  0.000  0.000  0.000  0.000  0.054
tot    0.013  0.265  0.235  0.000  0.000  0.019  0.132  0.000  0.171  0.836
 
band    23 # energy   -2.36219732 # occ.  2.00000000
 
ion      s     py     pz     px    dxy    dyz    dz2    dxz  x2-y2    tot
    1  0.025  0.000  0.006  0.000  0.000  0.024  0.005  0.000  0.010  0.069
    2  0.025  0.000  0.006  0.000  0.000  0.024  0.004  0.000  0.010  0.069
    3  0.025  0.000  0.006  0.000  0.000  0.024  0.005  0.000  0.010  0.069
    4  0.025  0.000  0.006  0.000  0.000  0.024  0.005  0.000  0.010  0.070
    5  0.008  0.012  0.039  0.000  0.000  0.000  0.000  0.000  0.000  0.059
    6  0.008  0.012  0.039  0.000  0.000  0.000  0.000  0.000  0.000  0.059
    7  0.008  0.012  0.038  0.000  0.000  0.000  0.000  0.000  0.000  0.058
    8  0.008  0.012  0.039  0.000  0.000  0.000  0.000  0.000  0.000  0.059
    9  0.000  0.044  0.033  0.000  0.000  0.000  0.000  0.000  0.000  0.077
   10  0.000  0.044  0.033  0.000  0.000  0.000  0.000  0.000  0.000  0.078
   11  0.000  0.045  0.034  0.000  0.000  0.000  0.000  0.000  0.000  0.078
   12  0.000  0.044  0.033  0.000  0.000  0.000  0.000  0.000  0.000  0.078
tot    0.131  0.226  0.311  0.000  0.000  0.096  0.018  0.000  0.041  0.824
 
band    24 # energy   -2.26514537 # occ.  2.00000000
 
ion      s     py     pz     px    dxy    dyz    dz2    dxz  x2-y2    tot
    1  0.000  0.007  0.002  0.000  0.000  0.009  0.041  0.000  0.035  0.092
    2  0.000  0.007  0.002  0.000  0.000  0.009  0.041  0.000  0.035  0.092
    3  0.000  0.007  0.002  0.000  0.000  0.009  0.041  0.000  0.034  0.092
    4  0.000  0.007  0.002  0.000  0.000  0.009  0.041  0.000  0.034  0.092
    5  0.006  0.015  0.032  0.000  0.000  0.000  0.000  0.000  0.000  0.053
    6  0.006  0.015  0.032  0.000  0.000  0.000  0.000  0.000  0.000  0.054
    7  0.006  0.015  0.032  0.000  0.000  0.000  0.000  0.000  0.000  0.054
    8  0.006  0.015  0.032  0.000  0.000  0.000  0.000  0.000  0.000  0.053
    9  0.000  0.041  0.035  0.000  0.000  0.000  0.000  0.000  0.000  0.076
   10  0.000  0.041  0.034  0.000  0.000  0.000  0.000  0.000  0.000  0.076
   11  0.000  0.041  0.035  0.000  0.000  0.000  0.000  0.000  0.000  0.076
   12  0.000  0.042  0.035  0.000  0.000  0.000  0.000  0.000  0.000  0.077
tot    0.026  0.253  0.274  0.000  0.000  0.035  0.163  0.000  0.138  0.889
 
band    25 # energy   -1.74053786 # occ.  2.00000000
 
ion      s     py     pz     px    dxy    dyz    dz2    dxz  x2-y2    tot
    1  0.000  0.000  0.000  0.005  0.022  0.000  0.000  0.080  0.000  0.108
    2  0.000  0.000  0.000  0.005  0.022  0.000  0.000  0.081  0.000  0.109
    3  0.000  0.000  0.000  0.006  0.025  0.000  0.000  0.088  0.000  0.119
    4  0.000  0.000  0.000  0.006  0.024  0.000  0.000  0.084  0.000  0.114
    5  0.000  0.000  0.000  0.119  0.000  0.000  0.000  0.000  0.000  0.119
    6  0.000  0.000  0.000  0.107  0.000  0.000  0.000  0.000  0.000  0.107
    7  0.000  0.000  0.000  0.108  0.000  0.000  0.000  0.000  0.000  0.108
    8  0.000  0.000  0.000  0.114  0.000  0.000  0.000  0.000  0.000  0.114
    9  0.000  0.000  0.000  0.014  0.000  0.000  0.000  0.000  0.000  0.014
   10  0.000  0.000  0.000  0.016  0.000  0.000  0.000  0.000  0.000  0.016
   11  0.000  0.000  0.000  0.015  0.000  0.000  0.000  0.000  0.000  0.015
   12  0.000  0.000  0.000  0.014  0.000  0.000  0.000  0.000  0.000  0.014
tot    0.000  0.000  0.000  0.530  0.093  0.000  0.000  0.334  0.000  0.957
 
band    26 # energy   -1.68182748 # occ.  2.00000000
 
ion      s     py     pz     px    dxy    dyz    dz2    dxz  x2-y2    tot
    1  0.000  0.000  0.000  0.010  0.037  0.000  0.000  0.063  0.000  0.110
    2  0.000  0.000  0.000  0.010  0.039  0.000  0.000  0.068  0.000  0.117
    3  0.000  0.000  0.000  0.010  0.037  0.000  0.000  0.063  0.000  0.111
    4  0.000  0.000  0.000  0.009  0.034  0.000  0.000  0.057  0.000  0.100
    5  0.000  0.000  0.000  0.122  0.000  0.000  0.000  0.000  0.000  0.122
    6  0.000  0.000  0.000  0.122  0.000  0.000  0.000  0.000  0.000  0.122
    7  0.000  0.000  0.000  0.129  0.000  0.000  0.000  0.000  0.000  0.129
    8  0.000  0.000  0.000  0.111  0.000  0.000  0.000  0.000  0.000  0.111
    9  0.000  0.000  0.000  0.009  0.000  0.000  0.000  0.000  0.000  0.009
   10  0.000  0.000  0.000  0.008  0.000  0.000  0.000  0.000  0.000  0.008
   11  0.000  0.000  0.000  0.007  0.000  0.000  0.000  0.000  0.000  0.007
   12  0.000  0.000  0.000  0.008  0.000  0.000  0.000  0.000  0.000  0.008
tot    0.000  0.000  0.000  0.557  0.147  0.000  0.000  0.251  0.000  0.956
 
band    27 # energy   -1.60585725 # occ.  2.00000000
 
ion      s     py     pz     px    dxy    dyz    dz2    dxz  x2-y2    tot
    1  0.000  0.000  0.000  0.004  0.027  0.000  0.000  0.085  0.000  0.115
    2  0.000  0.000  0.000  0.004  0.025  0.000  0.000  0.080  0.000  0.109
    3  0.000  0.000  0.000  0.004  0.026  0.000  0.000  0.082  0.000  0.111
    4  0.000  0.000  0.000  0.005  0.029  0.000  0.000  0.089  0.000  0.123
    5  0.000  0.000  0.000  0.101  0.000  0.000  0.000  0.000  0.000  0.101
    6  0.000  0.000  0.000  0.105  0.000  0.000  0.000  0.000  0.000  0.105
    7  0.000  0.000  0.000  0.098  0.000  0.000  0.000  0.000  0.000  0.098
    8  0.000  0.000  0.000  0.112  0.000  0.000  0.000  0.000  0.000  0.112