<?xml version="1.0" encoding="ISO-8859-1"?>
<modeling>
 <generator>
  <i name="program" type="string">vasp </i>
  <i name="version" type="string">5.4.4.18Apr17-6-g9f103f2a35  </i>
  <i name="subversion" type="string">(build Nov 08 2022 17:27:33) complex            parallel </i>
  <i name="platform" type="string">LinuxIFC </i>
  <i name="date" type="string">2022 11 22 </i>
  <i name="time" type="string">17:13:30 </i>
 </generator>
 <incar>
  <i type="string" name="PREC">accurate</i>
  <i type="string" name="ALGO"> Fast</i>
  <i type="int" name="ISPIN">     1</i>
  <i type="int" name="NELM">    40</i>
  <i type="int" name="IBRION">     2</i>
  <i name="EDIFF">      0.00001000</i>
  <i name="EDIFFG">     -0.03000000</i>
  <i type="int" name="NSW">   199</i>
  <i type="int" name="ISIF">     2</i>
  <i type="int" name="ISYM">     0</i>
  <i name="ENCUT">    400.00000000</i>
  <i name="ENAUG">    800.00000000</i>
  <v name="MAGMOM">      0.00000000      0.00000000      0.00000000      0.00000000      0.00000000      0.00000000      0.00000000      0.00000000      0.00000000      0.00000000      0.00000000      0.00000000</v>
  <i type="string" name="LREAL"> Auto</i>
  <i type="int" name="ISMEAR">     0</i>
  <i name="SIGMA">      0.01000000</i>
  <i type="int" name="LMAXMIX">     4</i>
  <i type="logical" name="LWAVE"> T  </i>
  <i type="int" name="LORBIT">    11</i>
  <i type="logical" name="LASPH"> T  </i>
  <v type="int" name="KPOINT_BSE">    -1     0     0     0</v>
  <i type="int" name="NELM">    40</i>
  <i type="string" name="GGA"> Pe</i>
  <i type="logical" name="LASPH"> T  </i>
 </incar>
 <structure name="primitive_cell" >
  <crystal>
   <varray name="basis" >
    <v>       2.91633100       0.00000000       0.00000000 </v>
    <v>      -0.00000100       4.58096600       0.00014500 </v>
    <v>       0.00000200       0.00030000       9.43439300 </v>
   </varray>
   <i name="volume">    126.03984071 </i>
   <varray name="rec_basis" >
    <v>       0.34289661       0.00000007      -0.00000007 </v>
    <v>       0.00000000       0.21829457      -0.00000694 </v>
    <v>       0.00000000      -0.00000336       0.10599516 </v>
   </varray>
  </crystal>
  <varray name="positions" >
   <v>       0.25000000       0.02126500      -0.13498600 </v>
   <v>      -0.25000000      -0.19132300      -0.21630800 </v>
   <v>       0.25000000       0.30854000      -0.28375200 </v>
   <v>      -0.25000000       0.21232300      -0.03694800 </v>
   <v>       0.25000000      -0.21232200       0.03695300 </v>
   <v>      -0.25000100      -0.02125900       0.13499200 </v>
   <v>       0.25000000      -0.28755300      -0.46307000 </v>
   <v>       0.25000000       0.19132200       0.21631000 </v>
   <v>      -0.25000000      -0.47869000      -0.36503200 </v>
   <v>      -0.25000000       0.28755100       0.46306600 </v>
   <v>      -0.25000000      -0.30854200       0.28375200 </v>
   <v>       0.25000100       0.47868900       0.36502400 </v>
  </varray>
 </structure>
 <varray name="primitive_index" >
  <v type="int" >        1 </v>
  <v type="int" >       12 </v>
  <v type="int" >       10 </v>
  <v type="int" >        6 </v>
  <v type="int" >        7 </v>
  <v type="int" >        2 </v>
  <v type="int" >        5 </v>
  <v type="int" >        9 </v>
  <v type="int" >        3 </v>
  <v type="int" >        8 </v>
  <v type="int" >       11 </v>
  <v type="int" >        4 </v>
 </varray>
 <kpoints>
  <generation param="Gamma">
   <v type="int" name="divisions">       1        1        1 </v>
   <v name="usershift">      0.00000000       0.00000000       0.00000000 </v>
   <v name="genvec1">      1.00000000       0.00000000      -0.00000000 </v>
   <v name="genvec2">      0.00000000       1.00000000       0.00000000 </v>
   <v name="genvec3">      0.00000000       0.00000000       1.00000000 </v>
   <v name="shift">      0.00000000       0.00000000       0.00000000 </v>
  </generation>
  <varray name="kpointlist" >
   <v>       0.00000000       0.00000000       0.00000000 </v>
  </varray>
  <varray name="weights" >
   <v>       1.00000000 </v>
  </varray>
 </kpoints>
 <parameters>
  <separator name="general" >
   <i type="string" name="SYSTEM">unknown system</i>
   <i type="logical" name="LCOMPAT"> F  </i>
  </separator>
  <separator name="electronic" >
   <i type="string" name="PREC">accura</i>
   <i name="ENMAX">    400.00000000</i>
   <i name="ENAUG">    800.00000000</i>
   <i name="EDIFF">      0.00001000</i>
   <i type="int" name="IALGO">    68</i>
   <i type="int" name="IWAVPR">    11</i>
   <i type="int" name="NBANDS">    60</i>
   <i name="NELECT">    100.00000000</i>
   <i type="int" name="TURBO">     0</i>
   <i type="int" name="IRESTART">     0</i>
   <i type="int" name="NREBOOT">     0</i>
   <i type="int" name="NMIN">     0</i>
   <i name="EREF">      0.00000000</i>
   <separator name="electronic smearing" >
    <i type="int" name="ISMEAR">     0</i>
    <i name="SIGMA">      0.01000000</i>
    <i name="KSPACING">      0.50000000</i>
    <i type="logical" name="KGAMMA"> T  </i>
   </separator>
   <separator name="electronic projectors" >
    <i type="logical" name="LREAL"> T  </i>
    <v name="ROPT">     -0.00025000     -0.00025000</v>
    <i type="int" name="LMAXPAW">  -100</i>
    <i type="int" name="LMAXMIX">     4</i>
    <i type="logical" name="NLSPLINE"> F  </i>
   </separator>
   <separator name="electronic startup" >
    <i type="int" name="ISTART">     0</i>
    <i type="int" name="ICHARG">     2</i>
    <i type="int" name="INIWAV">     1</i>
   </separator>
   <separator name="electronic spin" >
    <i type="int" name="ISPIN">     1</i>
    <i type="logical" name="LNONCOLLINEAR"> F  </i>
    <v name="MAGMOM">      0.00000000      0.00000000      0.00000000      0.00000000      0.00000000      0.00000000      0.00000000      0.00000000      0.00000000      0.00000000      0.00000000      0.00000000</v>
    <i name="NUPDOWN">     -1.00000000</i>
    <i type="logical" name="LSORBIT"> F  </i>
    <v name="SAXIS">      0.00000000      0.00000000      1.00000000</v>
    <i type="logical" name="LSPIRAL"> F  </i>
    <v name="QSPIRAL">      0.00000000      0.00000000      0.00000000</v>
    <i type="logical" name="LZEROZ"> F  </i>
   </separator>
   <separator name="electronic exchange-correlation" >
    <i type="logical" name="LASPH"> T  </i>
    <i type="logical" name="LMETAGGA"> F  </i>
   </separator>
   <separator name="electronic convergence" >
    <i type="int" name="NELM">    40</i>
    <i type="int" name="NELMDL">    -5</i>
    <i type="int" name="NELMIN">     2</i>
    <i name="ENINI">    400.00000000</i>
    <separator name="electronic convergence detail" >
     <i type="logical" name="LDIAG"> T  </i>
     <i type="logical" name="LSUBROT"> F  </i>
     <i name="WEIMIN">      0.00100000</i>
     <i name="EBREAK">      0.00000004</i>
     <i name="DEPER">      0.30000000</i>
     <i type="int" name="NRMM">     4</i>
     <i name="TIME">      0.40000000</i>
    </separator>
   </separator>
   <separator name="electronic mixer" >
    <i name="AMIX">      0.40000000</i>
    <i name="BMIX">      1.00000000</i>
    <i name="AMIN">      0.10000000</i>
    <i name="AMIX_MAG">      1.60000000</i>
    <i name="BMIX_MAG">      1.00000000</i>
    <separator name="electronic mixer details" >
     <i type="int" name="IMIX">     4</i>
     <i type="logical" name="MIXFIRST"> F  </i>
     <i type="int" name="MAXMIX">   -45</i>
     <i name="WC">    100.00000000</i>
     <i type="int" name="INIMIX">     1</i>
     <i type="int" name="MIXPRE">     1</i>
     <i type="int" name="MREMOVE">     5</i>
    </separator>
   </separator>
   <separator name="electronic dipolcorrection" >
    <i type="logical" name="LDIPOL"> F  </i>
    <i type="logical" name="LMONO"> F  </i>
    <i type="int" name="IDIPOL">     0</i>
    <i name="EPSILON">      1.00000000</i>
    <v name="DIPOL">   -100.00000000   -100.00000000   -100.00000000</v>
    <i name="EFIELD">      0.00000000</i>
   </separator>
  </separator>
  <separator name="grids" >
   <i type="int" name="NGX">    20</i>
   <i type="int" name="NGY">    30</i>
   <i type="int" name="NGZ">    64</i>
   <i type="int" name="NGXF">    40</i>
   <i type="int" name="NGYF">    60</i>
   <i type="int" name="NGZF">   128</i>
   <i type="logical" name="ADDGRID"> F  </i>
  </separator>
  <separator name="ionic" >
   <i type="int" name="NSW">   199</i>
   <i type="int" name="IBRION">     2</i>
   <i type="int" name="MDALGO">     0</i>
   <i type="int" name="ISIF">     2</i>
   <i name="PSTRESS">      0.00000000</i>
   <i name="EDIFFG">     -0.03000000</i>
   <i type="int" name="NFREE">     1</i>
   <i name="POTIM">      0.50000000</i>
   <i name="SMASS">     -3.00000000</i>
   <i name="SCALEE">      1.00000000</i>
  </separator>
  <separator name="ionic md" >
   <i name="TEBEG">      0.00010000</i>
   <i name="TEEND">      0.00010000</i>
   <i type="int" name="NBLOCK">     1</i>
   <i type="int" name="KBLOCK">   199</i>
   <i type="int" name="NPACO">   256</i>
   <i name="APACO">     16.00000000</i>
  </separator>
  <separator name="symmetry" >
   <i type="int" name="ISYM">     0</i>
   <i name="SYMPREC">      0.00001000</i>
  </separator>
  <separator name="dos" >
   <i type="int" name="LORBIT">    11</i>
   <v name="RWIGS">     -1.00000000     -1.00000000</v>
   <i type="int" name="NEDOS">   301</i>
   <i name="EMIN">     10.00000000</i>
   <i name="EMAX">    -10.00000000</i>
   <i name="EFERMI">      0.00000000</i>
  </separator>
  <separator name="writing" >
   <i type="int" name="NWRITE">     2</i>
   <i type="logical" name="LWAVE"> T  </i>
   <i type="logical" name="LDOWNSAMPLE"> F  </i>
   <i type="logical" name="LCHARG"> T  </i>
   <i type="logical" name="LPARD"> F  </i>
   <i type="logical" name="LVTOT"> F  </i>
   <i type="logical" name="LVHAR"> F  </i>
   <i type="logical" name="LELF"> F  </i>
   <i type="logical" name="LOPTICS"> F  </i>
   <v name="STM">      0.00000000      0.00000000      0.00000000      0.00000000      0.00000000      0.00000000      0.00000000</v>
  </separator>
  <separator name="performance" >
   <i type="int" name="NPAR">     4</i>
   <i type="int" name="NSIM">     4</i>
   <i type="int" name="NBLK">    -1</i>
   <i type="logical" name="LPLANE"> T  </i>
   <i type="logical" name="LSCALAPACK"> T  </i>
   <i type="logical" name="LSCAAWARE"> F  </i>
   <i type="logical" name="LSCALU"> F  </i>
   <i type="logical" name="LASYNC"> F  </i>
   <i type="logical" name="LORBITALREAL"> F  </i>
  </separator>
  <separator name="miscellaneous" >
   <i type="int" name="IDIOT">     3</i>
   <i type="int" name="ISPECIAL">     0</i>
   <i type="logical" name="LMUSIC"> F  </i>
   <v name="POMASS">     54.93800000     16.00000000</v>
   <v name="DARWINR">      0.00000000      0.00000000</v>
   <v name="DARWINV">      1.00000000      1.00000000</v>
   <i type="logical" name="LCORR"> T  </i>
  </separator>
  <i type="logical" name="GGA_COMPAT"> T  </i>
  <i type="logical" name="LBERRY"> F  </i>
  <i type="int" name="ICORELEVEL">     0</i>
  <i type="logical" name="LDAU"> F  </i>
  <i type="int" name="I_CONSTRAINED_M">     0</i>
  <separator name="electronic exchange-correlation" >
   <i type="string" name="GGA">PE</i>
   <i type="int" name="VOSKOWN">     0</i>
   <i type="logical" name="LHFCALC"> F  </i>
   <i type="string" name="PRECFOCK"></i>
   <i type="logical" name="LSYMGRAD"> F  </i>
   <i type="logical" name="LHFONE"> F  </i>
   <i type="logical" name="LRHFCALC"> F  </i>
   <i type="logical" name="LTHOMAS"> F  </i>
   <i type="logical" name="LMODELHF"> F  </i>
   <i name="ENCUT4O">     -1.00000000</i>
   <i type="int" name="EXXOEP">     0</i>
   <i type="int" name="FOURORBIT">     0</i>
   <i name="AEXX">      0.00000000</i>
   <i name="HFALPHA">      0.00000000</i>
   <i name="MCALPHA">      0.00000000</i>
   <i name="ALDAX">      1.00000000</i>
   <i name="AGGAX">      1.00000000</i>
   <i name="ALDAC">      1.00000000</i>
   <i name="AGGAC">      1.00000000</i>
   <i type="int" name="NKREDX">     1</i>
   <i type="int" name="NKREDY">     1</i>
   <i type="int" name="NKREDZ">     1</i>
   <i type="logical" name="SHIFTRED"> F  </i>
   <i type="logical" name="ODDONLY"> F  </i>
   <i type="logical" name="EVENONLY"> F  </i>
   <i type="int" name="LMAXFOCK">     0</i>
   <i type="int" name="NMAXFOCKAE">     0</i>
   <i type="logical" name="LFOCKAEDFT"> F  </i>
   <i name="HFSCREEN">      0.00000000</i>
   <i name="HFSCREENC">      0.00000000</i>
   <i type="int" name="NBANDSGWLOW">     0</i>
  </separator>
  <separator name="vdW DFT" >
   <i type="logical" name="LUSE_VDW"> F  </i>
   <i name="Zab_VDW">     -0.84910000</i>
   <i name="PARAM1">      0.12340000</i>
   <i name="PARAM2">      1.00000000</i>
   <i name="PARAM3">      0.00000000</i>
  </separator>
  <separator name="model GW" >
   <i type="int" name="MODEL_GW">     0</i>
   <i name="MODEL_EPS0">      6.30199204</i>
   <i name="MODEL_ALPHA">      1.00000000</i>
  </separator>
  <separator name="linear response parameters" >
   <i type="logical" name="LEPSILON"> F  </i>
   <i type="logical" name="LRPA"> F  </i>
   <i type="logical" name="LNABLA"> F  </i>
   <i type="logical" name="LVEL"> F  </i>
   <i type="int" name="KINTER">     0</i>
   <i name="CSHIFT">      0.10000000</i>
   <i name="OMEGAMAX">     -1.00000000</i>
   <i name="DEG_THRESHOLD">      0.00200000</i>
   <i name="RTIME">     -0.10000000</i>
   <i name="WPLASMAI">      0.00000000</i>
   <v name="DFIELD">      0.00000000      0.00000000      0.00000000</v>
   <v name="WPLASMA">      0.00000000      0.00000000      0.00000000      0.00000000      0.00000000      0.00000000      0.00000000      0.00000000      0.00000000</v>
  </separator>
  <separator name="orbital magnetization" >
   <i type="logical" name="NUCIND"> F  </i>
   <v name="MAGPOS">      0.00000000      0.00000000      0.00000000</v>
   <i type="logical" name="LNICSALL"> T  </i>
   <i type="logical" name="ORBITALMAG"> F  </i>
   <i type="logical" name="LMAGBLOCH"> F  </i>
   <i type="logical" name="LCHIMAG"> F  </i>
   <i type="logical" name="LGAUGE"> T  </i>
   <i type="int" name="MAGATOM">     0</i>
   <v name="MAGDIPOL">      0.00000000      0.00000000      0.00000000</v>
   <v name="AVECCONST">      0.00000000      0.00000000      0.00000000</v>
  </separator>
  <separator name="response functions" >
   <i type="logical" name="LADDER"> F  </i>
   <i type="logical" name="LRPAFORCE"> F  </i>
   <i type="logical" name="LFXC"> F  </i>
   <i type="logical" name="LHARTREE"> T  </i>
   <i type="int" name="IBSE">     0</i>
   <v type="int" name="KPOINT">    -1     0     0     0</v>
   <i type="logical" name="LTCTE"> F  </i>
   <i type="logical" name="LTETE"> F  </i>
   <i type="logical" name="LTRIPLET"> F  </i>
   <i type="logical" name="LFXCEPS"> F  </i>
   <i type="logical" name="LFXHEG"> F  </i>
   <i type="int" name="NATURALO">     2</i>
   <i type="logical" name="L2ORDER"> F  </i>
   <i type="logical" name="LMP2LT"> F  </i>
   <i type="logical" name="LUSEW"> F  </i>
   <i name="ENCUTGW">     -2.00000000</i>
   <i name="ENCUTGWSOFT">     -2.00000000</i>
   <i name="ENCUTLF">     -1.00000000</i>
   <i type="int" name="LMAXMP2">    -1</i>
   <i name="SCISSOR">      0.00000000</i>
   <i type="int" name="NOMEGA">     0</i>
   <i type="int" name="NOMEGAR">     0</i>
   <i type="int" name="NBANDSGW">    -1</i>
   <i type="int" name="NBANDSO">    -1</i>
   <i type="int" name="NBANDSV">    -1</i>
   <i type="int" name="NELM">    40</i>
   <i type="int" name="NELMHF">     1</i>
   <i type="int" name="DIM">     3</i>
   <i type="int" name="ANTIRES">     0</i>
   <i name="OMEGAMAX">    -30.00000000</i>
   <i name="OMEGAMIN">    -30.00000000</i>
   <i name="OMEGATL">   -200.00000000</i>
   <i type="int" name="OMEGAGRID">   140</i>
   <i name="CSHIFT">     -0.10000000</i>
   <i type="logical" name="SELFENERGY"> F  </i>
   <i type="logical" name="LSPECTRAL"> F  </i>
   <i type="logical" name="LSPECTRALGW"> F  </i>
   <i type="logical" name="LSINGLES"> F  </i>
   <i type="logical" name="LFERMIGW"> F  </i>
   <i type="logical" name="ODDONLYGW"> F  </i>
   <i type="logical" name="EVENONLYGW"> F  </i>
   <i type="int" name="NKREDLFX">     1</i>
   <i type="int" name="NKREDLFY">     1</i>
   <i type="int" name="NKREDLFZ">     1</i>
   <i type="int" name="MAXMEM">  2800</i>
   <i type="int" name="TELESCOPE">     0</i>
   <i type="int" name="TAUPAR">     1</i>
   <i type="int" name="OMEGAPAR">    -1</i>
   <i name="LAMBDA">      1.00000000</i>
  </separator>
  <separator name="External order field" >
   <i name="OFIELD_KAPPA">      0.00000000</i>
   <v name="OFIELD_K">      0.00000000      0.00000000      0.00000000</v>
   <i name="OFIELD_Q6_NEAR">      0.00000000</i>
   <i name="OFIELD_Q6_FAR">      0.00000000</i>
   <i name="OFIELD_A">      0.00000000</i>
  </separator>
 </parameters>
 <atominfo>
  <atoms>      12 </atoms>
  <types>       2 </types>
  <array name="atoms" >
   <dimension dim="1">ion</dimension>
   <field type="string">element</field>
   <field type="int">atomtype</field>
   <set>
    <rc><c>Mn</c><c>   1</c></rc>
    <rc><c>Mn</c><c>   1</c></rc>
    <rc><c>Mn</c><c>   1</c></rc>
    <rc><c>Mn</c><c>   1</c></rc>
    <rc><c>O </c><c>   2</c></rc>
    <rc><c>O </c><c>   2</c></rc>
    <rc><c>O </c><c>   2</c></rc>
    <rc><c>O </c><c>   2</c></rc>
    <rc><c>O </c><c>   2</c></rc>
    <rc><c>O </c><c>   2</c></rc>
    <rc><c>O </c><c>   2</c></rc>
    <rc><c>O </c><c>   2</c></rc>
   </set>
  </array>
  <array name="atomtypes" >
   <dimension dim="1">type</dimension>
   <field type="int">atomspertype</field>
   <field type="string">element</field>
   <field>mass</field>
   <field>valence</field>
   <field type="string">pseudopotential</field>
   <set>
    <rc><c>   4</c><c>Mn</c><c>     54.93800000</c><c>     13.00000000</c><c>  PAW_PBE Mn_pv 02Aug2007               </c></rc>
    <rc><c>   8</c><c>O </c><c>     16.00000000</c><c>      6.00000000</c><c>  PAW_PBE O 08Apr2002                   </c></rc>
   </set>
  </array>
 </atominfo>
 <structure name="initialpos" >
  <crystal>
   <varray name="basis" >
    <v>       2.91633100       0.00000000       0.00000000 </v>
    <v>      -0.00000100       4.58096600       0.00014500 </v>
    <v>       0.00000200       0.00030000       9.43439300 </v>
   </varray>
   <i name="volume">    126.03984071 </i>
   <varray name="rec_basis" >
    <v>       0.34289661       0.00000007      -0.00000007 </v>
    <v>       0.00000000       0.21829457      -0.00000694 </v>
    <v>       0.00000000      -0.00000336       0.10599516 </v>
   </varray>
  </crystal>
  <varray name="positions" >
   <v>       0.25000000       0.02126500       0.86501400 </v>
   <v>       0.74999900       0.97874100       0.13499200 </v>
   <v>       0.75000000       0.52131000       0.63496800 </v>
   <v>       0.25000100       0.47868900       0.36502400 </v>
   <v>       0.25000000       0.71244700       0.53693000 </v>
   <v>       0.75000000       0.21232300       0.96305200 </v>
   <v>       0.25000000       0.78767800       0.03695300 </v>
   <v>       0.75000000       0.28755100       0.46306600 </v>
   <v>       0.25000000       0.19132200       0.21631000 </v>
   <v>       0.25000000       0.30854000       0.71624800 </v>
   <v>       0.75000000       0.69145800       0.28375200 </v>
   <v>       0.75000000       0.80867700       0.78369200 </v>
  </varray>
 </structure>
 <calculation>
  <scstep>
   <time name="dav">    0.10    0.17</time>
   <time name="total">    0.29    0.37</time>
   <energy>
    <i name="alphaZ">    441.37612112 </i>
    <i name="ewald">  -7485.64291034 </i>
    <i name="hartreedc">  -3708.68415669 </i>
    <i name="XCdc">    495.40746094 </i>
    <i name="pawpsdc">   9357.60403054 </i>
    <i name="pawaedc">  -9574.99295777 </i>
    <i name="eentropy">     -0.00000000 </i>
    <i name="bandstr">    176.42760967 </i>
    <i name="atom">  11559.05757976 </i>
    <i name="e_fr_energy">   1260.55277723 </i>
    <i name="e_wo_entrp">   1260.55277723 </i>
    <i name="e_0_energy">   1260.55277723 </i>
   </energy>
  </scstep>
  <scstep>
   <time name="dav">    0.12    0.12</time>
   <time name="total">    0.12    0.12</time>
   <energy>
    <i name="e_fr_energy">     75.38704249 </i>
    <i name="e_wo_entrp">     75.38704249 </i>
    <i name="e_0_energy">     75.38704249 </i>
   </energy>
  </scstep>
  <scstep>
   <time name="dav">    0.11    0.11</time>
   <time name="total">    0.11    0.11</time>
   <energy>
    <i name="e_fr_energy">   -112.64995609 </i>
    <i name="e_wo_entrp">   -112.64995609 </i>
    <i name="e_0_energy">   -112.64995609 </i>
   </energy>
  </scstep>
  <scstep>
   <time name="dav">    0.08    0.13</time>
   <time name="total">    0.08    0.13</time>
   <energy>
    <i name="e_fr_energy">   -121.00356711 </i>
    <i name="e_wo_entrp">   -121.00049532 </i>
    <i name="e_0_energy">   -121.00203121 </i>
   </energy>
  </scstep>
  <scstep>
   <time name="dav">    0.07    0.14</time>
   <time name="total">    0.07    0.15</time>
   <energy>
    <i name="e_fr_energy">   -121.23983299 </i>
    <i name="e_wo_entrp">   -121.22886315 </i>
    <i name="e_0_energy">   -121.23434807 </i>
   </energy>
  </scstep>
  <scstep>
   <time name="diag">    0.01    0.02</time>
   <time name="diis">    0.03    0.06</time>
   <time name="orth">    0.00    0.00</time>
   <time name="total">    0.14    0.28</time>
   <energy>
    <i name="e_fr_energy">   -155.47662763 </i>
    <i name="e_wo_entrp">   -155.47662763 </i>
    <i name="e_0_energy">   -155.47662763 </i>
   </energy>
  </scstep>
  <scstep>
   <time name="diag">    0.01    0.02</time>
   <time name="diis">    0.04    0.08</time>
   <time name="orth">    0.00    0.01</time>
   <time name="total">    0.16    0.31</time>
   <energy>
    <i name="e_fr_energy">    -88.32960047 </i>
    <i name="e_wo_entrp">    -88.32940141 </i>
    <i name="e_0_energy">    -88.32950094 </i>
   </energy>
  </scstep>
  <scstep>
   <time name="diag">    0.02    0.02</time>
   <time name="diis">    0.09    0.09</time>
   <time name="orth">    0.00    0.00</time>
   <time name="total">    0.34    0.35</time>
   <energy>
    <i name="e_fr_energy">   -133.03367037 </i>
    <i name="e_wo_entrp">   -133.03367037 </i>
    <i name="e_0_energy">   -133.03367037 </i>
   </energy>
  </scstep>
  <scstep>
   <time name="diag">    0.02    0.02</time>
   <time name="diis">    0.07    0.07</time>
   <time name="orth">    0.00    0.00</time>
   <time name="total">    0.31    0.31</time>
   <energy>
    <i name="e_fr_energy">    -95.86599915 </i>
    <i name="e_wo_entrp">    -95.86599915 </i>
    <i name="e_0_energy">    -95.86599915 </i>
   </energy>
  </scstep>
  <scstep>
   <time name="diag">    0.01    0.01</time>
   <time name="diis">    0.05    0.05</time>
   <time name="orth">    0.00    0.00</time>
   <time name="total">    0.25    0.25</time>
   <energy>
    <i name="e_fr_energy">    -92.34668406 </i>
    <i name="e_wo_entrp">    -92.34668406 </i>
    <i name="e_0_energy">    -92.34668406 </i>
   </energy>
  </scstep>
  <scstep>
   <time name="diag">    0.01    0.01</time>
   <time name="diis">    0.03    0.03</time>
   <time name="orth">    0.00    0.00</time>
   <time name="total">    0.22    0.23</time>
   <energy>
    <i name="e_fr_energy">    -89.89340499 </i>
    <i name="e_wo_entrp">    -89.89340499 </i>
    <i name="e_0_energy">    -89.89340499 </i>
   </energy>
  </scstep>
  <scstep>
   <time name="diag">    0.01    0.01</time>
   <time name="diis">    0.03    0.03</time>
   <time name="orth">    0.00    0.00</time>
   <time name="total">    0.22    0.22</time>
   <energy>
    <i name="e_fr_energy">    -87.78414187 </i>
    <i name="e_wo_entrp">    -87.78395895 </i>
    <i name="e_0_energy">    -87.78405041 </i>
   </energy>
  </scstep>
  <scstep>
   <time name="diag">    0.01    0.03</time>
   <time name="diis">    0.06    0.07</time>
   <time name="orth">    0.00    0.00</time>
   <time name="total">    0.26    0.29</time>
   <energy>
    <i name="e_fr_energy">    -87.29759825 </i>
    <i name="e_wo_entrp">    -87.29181498 </i>
    <i name="e_0_energy">    -87.29470661 </i>
   </energy>
  </scstep>
  <scstep>
   <time name="diag">    0.02    0.02</time>
   <time name="diis">    0.05    0.05</time>
   <time name="orth">    0.00    0.00</time>
   <time name="total">    0.26    0.26</time>
   <energy>
    <i name="e_fr_energy">    -87.07360217 </i>
    <i name="e_wo_entrp">    -87.06896676 </i>
    <i name="e_0_energy">    -87.07128447 </i>
   </energy>
  </scstep>
  <scstep>
   <time name="diag">    0.01    0.01</time>
   <time name="diis">    0.03    0.03</time>
   <time name="orth">    0.00    0.00</time>
   <time name="total">    0.23    0.23</time>
   <energy>
    <i name="e_fr_energy">    -87.23253320 </i>
    <i name="e_wo_entrp">    -87.23251578 </i>
    <i name="e_0_energy">    -87.23252449 </i>
   </energy>
  </scstep>
  <scstep>
   <time name="diag">    0.01    0.01</time>
   <time name="diis">    0.03    0.03</time>
   <time name="orth">    0.00    0.00</time>
   <time name="total">    0.22    0.22</time>
   <energy>
    <i name="e_fr_energy">    -87.13413208 </i>
    <i name="e_wo_entrp">    -87.12366456 </i>
    <i name="e_0_energy">    -87.12889832 </i>
   </energy>
  </scstep>
  <scstep>
   <time name="diag">    0.01    0.01</time>
   <time name="diis">    0.05    0.05</time>
   <time name="orth">    0.00    0.00</time>
   <time name="total">    0.25    0.26</time>
   <energy>
    <i name="e_fr_energy">    -87.24880111 </i>
    <i name="e_wo_entrp">    -87.23862070 </i>
    <i name="e_0_energy">    -87.24371090 </i>
   </energy>
  </scstep>
  <scstep>
   <time name="diag">    0.01    0.01</time>
   <time name="diis">    0.04    0.04</time>
   <time name="orth">    0.00    0.00</time>
   <time name="total">    0.24    0.24</time>
   <energy>
    <i name="e_fr_energy">    -87.10685838 </i>
    <i name="e_wo_entrp">    -87.10032257 </i>
    <i name="e_0_energy">    -87.10359048 </i>
   </energy>
  </scstep>
  <scstep>
   <time name="diag">    0.01    0.01</time>
   <time name="diis">    0.03    0.03</time>
   <time name="orth">    0.00    0.00</time>
   <time name="total">    0.22    0.22</time>
   <energy>
    <i name="e_fr_energy">    -87.08798199 </i>
    <i name="e_wo_entrp">    -87.07912290 </i>
    <i name="e_0_energy">    -87.08355244 </i>
   </energy>
  </scstep>
  <scstep>
   <time name="diag">    0.01    0.01</time>
   <time name="diis">    0.03    0.03</time>
   <time name="orth">    0.00    0.00</time>
   <time name="total">    0.22    0.22</time>
   <energy>
    <i name="e_fr_energy">    -87.10553555 </i>
    <i name="e_wo_entrp">    -87.09392136 </i>
    <i name="e_0_energy">    -87.09972846 </i>
   </energy>
  </scstep>
  <scstep>
   <time name="diag">    0.01    0.01</time>
   <time name="diis">    0.04    0.04</time>
   <time name="orth">    0.00    0.00</time>
   <time name="total">    0.24    0.24</time>
   <energy>
    <i name="e_fr_energy">    -87.12754063 </i>
    <i name="e_wo_entrp">    -87.11599436 </i>
    <i name="e_0_energy">    -87.12176750 </i>
   </energy>
  </scstep>
  <scstep>
   <time name="diag">    0.01    0.01</time>
   <time name="diis">    0.03    0.03</time>
   <time name="orth">    0.00    0.00</time>
   <time name="total">    0.22    0.22</time>
   <energy>
    <i name="e_fr_energy">    -87.13805866 </i>
    <i name="e_wo_entrp">    -87.12682563 </i>
    <i name="e_0_energy">    -87.13244215 </i>
   </energy>
  </scstep>
  <scstep>
   <time name="diag">    0.01    0.01</time>
   <time name="diis">    0.03    0.03</time>
   <time name="orth">    0.00    0.00</time>
   <time name="total">    0.23    0.23</time>
   <energy>
    <i name="e_fr_energy">    -87.12808255 </i>
    <i name="e_wo_entrp">    -87.11683009 </i>
    <i name="e_0_energy">    -87.12245632 </i>
   </energy>
  </scstep>
  <scstep>
   <time name="diag">    0.01    0.01</time>
   <time name="diis">    0.05    0.05</time>
   <time name="orth">    0.00    0.00</time>
   <time name="total">    0.24    0.25</time>
   <energy>
    <i name="e_fr_energy">    -87.13071194 </i>
    <i name="e_wo_entrp">    -87.11963596 </i>
    <i name="e_0_energy">    -87.12517395 </i>
   </energy>
  </scstep>
  <scstep>
   <time name="diag">    0.01    0.01</time>
   <time name="diis">    0.03    0.03</time>
   <time name="orth">    0.00    0.00</time>
   <time name="total">    0.22    0.22</time>
   <energy>
    <i name="e_fr_energy">    -87.13576979 </i>
    <i name="e_wo_entrp">    -87.12494202 </i>
    <i name="e_0_energy">    -87.13035591 </i>
   </energy>
  </scstep>
  <scstep>
   <time name="diag">    0.01    0.01</time>
   <time name="diis">    0.03    0.03</time>
   <time name="orth">    0.00    0.00</time>
   <time name="total">    0.22    0.22</time>
   <energy>
    <i name="e_fr_energy">    -87.12844108 </i>
    <i name="e_wo_entrp">    -87.11759885 </i>
    <i name="e_0_energy">    -87.12301997 </i>
   </energy>
  </scstep>
  <scstep>
   <time name="diag">    0.01    0.01</time>
   <time name="diis">    0.03    0.03</time>
   <time name="orth">    0.00    0.00</time>
   <time name="total">    0.22    0.22</time>
   <energy>
    <i name="e_fr_energy">    -87.12931186 </i>
    <i name="e_wo_entrp">    -87.11831547 </i>
    <i name="e_0_energy">    -87.12381366 </i>
   </energy>
  </scstep>
  <scstep>
   <time name="diag">    0.01    0.01</time>
   <time name="diis">    0.04    0.04</time>
   <time name="orth">    0.00    0.00</time>
   <time name="total">    0.23    0.23</time>
   <energy>
    <i name="e_fr_energy">    -87.13380738 </i>
    <i name="e_wo_entrp">    -87.12298926 </i>
    <i name="e_0_energy">    -87.12839832 </i>
   </energy>
  </scstep>
  <scstep>
   <time name="diag">    0.01    0.01</time>
   <time name="diis">    0.03    0.03</time>
   <time name="orth">    0.00    0.00</time>
   <time name="total">    0.22    0.22</time>
   <energy>
    <i name="e_fr_energy">    -87.13359241 </i>
    <i name="e_wo_entrp">    -87.12250607 </i>
    <i name="e_0_energy">    -87.12804924 </i>
   </energy>
  </scstep>
  <scstep>
   <time name="diag">    0.01    0.01</time>
   <time name="diis">    0.03    0.03</time>
   <time name="orth">    0.00    0.00</time>
   <time name="total">    0.22    0.22</time>
   <energy>
    <i name="e_fr_energy">    -87.13277292 </i>
    <i name="e_wo_entrp">    -87.12179313 </i>
    <i name="e_0_energy">    -87.12728302 </i>
   </energy>
  </scstep>
  <scstep>
   <time name="diag">    0.01    0.01</time>
   <time name="diis">    0.02    0.02</time>
   <time name="orth">    0.00    0.00</time>
   <time name="total">    0.21    0.22</time>
   <energy>
    <i name="e_fr_energy">    -87.13337657 </i>
    <i name="e_wo_entrp">    -87.12238300 </i>
    <i name="e_0_energy">    -87.12787979 </i>
   </energy>
  </scstep>
  <scstep>
   <time name="diag">    0.01    0.01</time>
   <time name="diis">    0.02    0.02</time>
   <time name="orth">    0.00    0.00</time>
   <time name="total">    0.22    0.22</time>
   <energy>
    <i name="e_fr_energy">    -87.13364546 </i>
    <i name="e_wo_entrp">    -87.12260546 </i>
    <i name="e_0_energy">    -87.12812546 </i>
   </energy>
  </scstep>
  <scstep>
   <time name="diag">    0.01    0.01</time>
   <time name="diis">    0.03    0.03</time>
   <time name="orth">    0.00    0.00</time>
   <time name="total">    0.22    0.23</time>
   <energy>
    <i name="e_fr_energy">    -87.13367357 </i>
    <i name="e_wo_entrp">    -87.12268825 </i>
    <i name="e_0_energy">    -87.12818091 </i>
   </energy>
  </scstep>
  <scstep>
   <time name="diag">    0.01    0.01</time>
   <time name="diis">    0.01    0.01</time>
   <time name="orth">    0.00    0.00</time>
   <time name="total">    0.21    0.21</time>
   <energy>
    <i name="e_fr_energy">    -87.13364572 </i>
    <i name="e_wo_entrp">    -87.12263281 </i>
    <i name="e_0_energy">    -87.12813927 </i>
   </energy>
  </scstep>
  <scstep>
   <time name="diag">    0.01    0.01</time>
   <time name="diis">    0.02    0.02</time>
   <time name="orth">    0.00    0.00</time>
   <time name="total">    0.21    0.21</time>
   <energy>
    <i name="e_fr_energy">    -87.13366450 </i>
    <i name="e_wo_entrp">    -87.12268186 </i>
    <i name="e_0_energy">    -87.12817318 </i>
   </energy>
  </scstep>
  <scstep>
   <time name="diag">    0.01    0.01</time>
   <time name="diis">    0.02    0.02</time>
   <time name="orth">    0.00    0.00</time>
   <time name="total">    0.21    0.21</time>
   <energy>
    <i name="alphaZ">    441.37612112 </i>
    <i name="ewald">  -7485.64291034 </i>
    <i name="hartreedc">  -3620.71110689 </i>
    <i name="XCdc">    495.31141269 </i>
    <i name="pawpsdc">  11617.70044545 </i>
    <i name="pawaedc"> -11846.51502483 </i>
    <i name="eentropy">     -0.01099304 </i>
    <i name="bandstr">  -1247.69918827 </i>
    <i name="atom">  11559.05757976 </i>
    <i name="e_fr_energy">    -87.13366435 </i>
    <i name="e_wo_entrp">    -87.12267131 </i>
    <i name="e_0_energy">    -87.12816783 </i>
   </energy>
  </scstep>
  <structure>
   <crystal>
    <varray name="basis" >
     <v>       2.91633100       0.00000000       0.00000000 </v>
     <v>      -0.00000100       4.58096600       0.00014500 </v>
     <v>       0.00000200       0.00030000       9.43439300 </v>
    </varray>
    <i name="volume">    126.03984071 </i>
    <varray name="rec_basis" >
     <v>       0.34289661       0.00000007      -0.00000007 </v>
     <v>       0.00000000       0.21829457      -0.00000694 </v>
     <v>       0.00000000      -0.00000336       0.10599516 </v>
    </varray>
   </crystal>
   <varray name="positions" >
    <v>       0.25000000       0.02126500       0.86501400 </v>
    <v>       0.74999900       0.97874100       0.13499200 </v>
    <v>       0.75000000       0.52131000       0.63496800 </v>
    <v>       0.25000100       0.47868900       0.36502400 </v>
    <v>       0.25000000       0.71244700       0.53693000 </v>
    <v>       0.75000000       0.21232300       0.96305200 </v>
    <v>       0.25000000       0.78767800       0.03695300 </v>
    <v>       0.75000000       0.28755100       0.46306600 </v>
    <v>       0.25000000       0.19132200       0.21631000 </v>
    <v>       0.25000000       0.30854000       0.71624800 </v>
    <v>       0.75000000       0.69145800       0.28375200 </v>
    <v>       0.75000000       0.80867700       0.78369200 </v>
   </varray>
  </structure>
  <varray name="forces" >
   <v>       0.00006253      -0.18124312      -0.06636627 </v>
   <v>      -0.00004309       0.18028180       0.06483727 </v>
   <v>       0.00008485      -0.18493859       0.06770066 </v>
   <v>       0.00002859       0.18453053      -0.06625650 </v>
   <v>      -0.00002232      -3.15289176       0.90217636 </v>
   <v>      -0.00005360      -3.14571759      -0.89924270 </v>
   <v>       0.00002240       3.14705548       0.90037880 </v>
   <v>      -0.00000033       3.15365015      -0.90255767 </v>
   <v>       0.00001889      -0.96265246      -0.30951147 </v>
   <v>      -0.00000100       0.96909348      -0.30867463 </v>
   <v>      -0.00004041      -0.96966058       0.30900143 </v>
   <v>      -0.00005652       0.96249267       0.30851471 </v>
  </varray>
  <varray name="stress" >
   <v>     -43.18420352      -0.00119458      -0.00153026 </v>
   <v>      -0.00119419    -284.01509810      -0.06389191 </v>
   <v>      -0.00153035      -0.06389043    -255.05671771 </v>
  </varray>
  <energy>
   <i name="e_fr_energy">    -87.13366435 </i>
   <i name="e_wo_entrp">    -87.12816783 </i>
   <i name="e_0_energy">     -0.01099304 </i>
  </energy>
  <time name="totalsc">    8.80    9.88</time>
 </calculation>
 <calculation>
  <scstep>
   <time name="dav">    0.07    0.14</time>
   <time name="total">    0.18    0.34</time>
   <energy>
    <i name="alphaZ">    441.37612112 </i>
    <i name="ewald">  -7226.48746803 </i>
    <i name="hartreedc">  -3857.44854403 </i>
    <i name="XCdc">    496.89478738 </i>
    <i name="pawpsdc">  11617.67642573 </i>
    <i name="pawaedc"> -11846.49093186 </i>
    <i name="eentropy">     -0.00008581 </i>
    <i name="bandstr">  -1271.65020722 </i>
    <i name="atom">  11559.05757976 </i>
    <i name="e_fr_energy">    -87.07232295 </i>
    <i name="e_wo_entrp">    -87.07223714 </i>
    <i name="e_0_energy">    -87.07228004 </i>
   </energy>
  </scstep>
  <scstep>
   <time name="diag">    0.01    0.02</time>
   <time name="diis">    0.03    0.06</time>
   <time name="orth">    0.00    0.00</time>
   <time name="total">    0.13    0.28</time>
   <energy>
    <i name="e_fr_energy">    -89.95297047 </i>
    <i name="e_wo_entrp">    -89.94611669 </i>
    <i name="e_0_energy">    -89.94954358 </i>
   </energy>
  </scstep>
  <scstep>
   <time name="diag">    0.01    0.02</time>
   <time name="diis">    0.03    0.05</time>
   <time name="orth">    0.00    0.00</time>
   <time name="total">    0.24    0.32</time>
   <energy>
    <i name="e_fr_energy">    -89.26547408 </i>
    <i name="e_wo_entrp">    -89.26547408 </i>
    <i name="e_0_energy">    -89.26547408 </i>
   </energy>
  </scstep>
  <scstep>
   <time name="diag">    0.02    0.02</time>
   <time name="diis">    0.03    0.05</time>
   <time name="orth">    0.00    0.00</time>
   <time name="total">    0.23    0.33</time>
   <energy>
    <i name="e_fr_energy">    -89.25704136 </i>
    <i name="e_wo_entrp">    -89.25704136 </i>
    <i name="e_0_energy">    -89.25704136 </i>
   </energy>
  </scstep>
  <scstep>
   <time name="diag">    0.01    0.02</time>
   <time name="diis">    0.03    0.06</time>
   <time name="orth">    0.00    0.00</time>
   <time name="total">    0.13    0.27</time>
   <energy>
    <i name="e_fr_energy">    -89.32621958 </i>
    <i name="e_wo_entrp">    -89.32621856 </i>
    <i name="e_0_energy">    -89.32621907 </i>
   </energy>
  </scstep>
  <scstep>
   <time name="diag">    0.01    0.02</time>
   <time name="diis">    0.03    0.07</time>
   <time name="orth">    0.00    0.00</time>
   <time name="total">    0.18    0.32</time>
   <energy>
    <i name="e_fr_energy">    -88.87253938 </i>
    <i name="e_wo_entrp">    -88.87253644 </i>
    <i name="e_0_energy">    -88.87253791 </i>
   </energy>
  </scstep>
  <scstep>
   <time name="diag">    0.01    0.01</time>
   <time name="diis">    0.03    0.03</time>
   <time name="orth">    0.00    0.00</time>
   <time name="total">    0.21    0.24</time>
   <energy>
    <i name="e_fr_energy">    -90.34999157 </i>
    <i name="e_wo_entrp">    -90.34999157 </i>
    <i name="e_0_energy">    -90.34999157 </i>
   </energy>
  </scstep>
  <scstep>
   <time name="diag">    0.01    0.01</time>
   <time name="diis">    0.03    0.03</time>
   <time name="orth">    0.00    0.00</time>
   <time name="total">    0.22    0.22</time>
   <energy>
    <i name="e_fr_energy">    -88.83274082 </i>
    <i name="e_wo_entrp">    -88.83274082 </i>
    <i name="e_0_energy">    -88.83274082 </i>
   </energy>
  </scstep>
  <scstep>
   <time name="diag">    0.01    0.01</time>
   <time name="diis">    0.04    0.04</time>
   <time name="orth">    0.00    0.00</time>
   <time name="total">    0.23    0.23</time>
   <energy>
    <i name="e_fr_energy">    -88.91366059 </i>
    <i name="e_wo_entrp">    -88.91366059 </i>
    <i name="e_0_energy">    -88.91366059 </i>
   </energy>
  </scstep>
  <scstep>
   <time name="diag">    0.01    0.01</time>
   <time name="diis">    0.04    0.04</time>
   <time name="orth">    0.00    0.00</time>
   <time name="total">    0.23    0.23</time>
   <energy>
    <i name="e_fr_energy">    -88.91221323 </i>
    <i name="e_wo_entrp">    -88.91221323 </i>
    <i name="e_0_energy">    -88.91221323 </i>
   </energy>
  </scstep>
  <scstep>
   <time name="diag">    0.01    0.01</time>
   <time name="diis">    0.03    0.03</time>
   <time name="orth">    0.00    0.00</time>
   <time name="total">    0.22    0.23</time>
   <energy>
    <i name="e_fr_energy">    -88.91056155 </i>
    <i name="e_wo_entrp">    -88.91056155 </i>
    <i name="e_0_energy">    -88.91056155 </i>
   </energy>
  </scstep>
  <scstep>
   <time name="diag">    0.01    0.01</time>
   <time name="diis">    0.03    0.03</time>
   <time name="orth">    0.00    0.00</time>
   <time name="total">    0.22    0.23</time>
   <energy>
    <i name="e_fr_energy">    -88.90462638 </i>
    <i name="e_wo_entrp">    -88.90462638 </i>
    <i name="e_0_energy">    -88.90462638 </i>
   </energy>
  </scstep>
  <scstep>
   <time name="diag">    0.01    0.01</time>
   <time name="diis">    0.03    0.03</time>
   <time name="orth">    0.00    0.00</time>
   <time name="total">    0.23    0.23</time>
   <energy>
    <i name="e_fr_energy">    -88.90259736 </i>
    <i name="e_wo_entrp">    -88.90259736 </i>
    <i name="e_0_energy">    -88.90259736 </i>
   </energy>
  </scstep>
  <scstep>
   <time name="diag">    0.01    0.01</time>
   <time name="diis">    0.04    0.04</time>
   <time name="orth">    0.00    0.00</time>
   <time name="total">    0.23    0.23</time>
   <energy>
    <i name="e_fr_energy">    -88.90100848 </i>
    <i name="e_wo_entrp">    -88.90100848 </i>
    <i name="e_0_energy">    -88.90100848 </i>
   </energy>
  </scstep>
  <scstep>
   <time name="diag">    0.01    0.01</time>
   <time name="diis">    0.05    0.05</time>
   <time name="orth">    0.00    0.00</time>
   <time name="total">    0.24    0.24</time>
   <energy>
    <i name="e_fr_energy">    -88.90057172 </i>
    <i name="e_wo_entrp">    -88.90057172 </i>
    <i name="e_0_energy">    -88.90057172 </i>
   </energy>
  </scstep>
  <scstep>
   <time name="diag">    0.01    0.01</time>
   <time name="diis">    0.03    0.03</time>
   <time name="orth">    0.00    0.00</time>
   <time name="total">    0.22    0.22</time>
   <energy>
    <i name="e_fr_energy">    -88.90029681 </i>
    <i name="e_wo_entrp">    -88.90029681 </i>
    <i name="e_0_energy">    -88.90029681 </i>
   </energy>
  </scstep>
  <scstep>
   <time name="diag">    0.01    0.01</time>
   <time name="diis">    0.03    0.03</time>
   <time name="orth">    0.00    0.00</time>
   <time name="total">    0.22    0.22</time>
   <energy>
    <i name="e_fr_energy">    -88.90022814 </i>
    <i name="e_wo_entrp">    -88.90022814 </i>
    <i name="e_0_energy">    -88.90022814 </i>
   </energy>
  </scstep>
  <scstep>
   <time name="diag">    0.01    0.01</time>
   <time name="diis">    0.02    0.02</time>
   <time name="orth">    0.00    0.00</time>
   <time name="total">    0.21    0.21</time>
   <energy>
    <i name="alphaZ">    441.37612112 </i>
    <i name="ewald">  -7226.48746803 </i>
    <i name="hartreedc">  -3877.17587790 </i>
    <i name="XCdc">    497.31204387 </i>
    <i name="pawpsdc">  12091.39618668 </i>
    <i name="pawaedc"> -12320.33896500 </i>
    <i name="eentropy">     -0.00000000 </i>
    <i name="bandstr">  -1254.03984502 </i>
    <i name="atom">  11559.05757976 </i>
    <i name="e_fr_energy">    -88.90022451 </i>
    <i name="e_wo_entrp">    -88.90022451 </i>
    <i name="e_0_energy">    -88.90022451 </i>
   </energy>
  </scstep>
  <structure>
   <crystal>
    <varray name="basis" >
     <v>       2.91633100       0.00000000       0.00000000 </v>
     <v>      -0.00000100       4.58096600       0.00014500 </v>
     <v>       0.00000200       0.00030000       9.43439300 </v>
    </varray>
    <i name="volume">    126.03984071 </i>
    <varray name="rec_basis" >
     <v>       0.34289661       0.00000007      -0.00000007 </v>
     <v>       0.00000000       0.21829457      -0.00000694 </v>
     <v>       0.00000000      -0.00000336       0.10599516 </v>
    </varray>
   </crystal>
   <varray name="positions" >
    <v>       0.25000103       0.01935633       0.86467467 </v>
    <v>       0.74999829       0.98063955       0.13532352 </v>
    <v>       0.75000140       0.51936237       0.63531422 </v>
    <v>       0.25000147       0.48063233       0.36468517 </v>
    <v>       0.24999962       0.67924325       0.54154378 </v>
    <v>       0.74999911       0.17919540       0.95845424 </v>
    <v>       0.25000038       0.82081968       0.04155657 </v>
    <v>       0.75000001       0.32076274       0.45845027 </v>
    <v>       0.25000031       0.18118431       0.21472747 </v>
    <v>       0.24999999       0.31874573       0.71466944 </v>
    <v>       0.74999933       0.68124629       0.28533223 </v>
    <v>       0.74999907       0.81881301       0.78526943 </v>
   </varray>
  </structure>
  <varray name="forces" >
   <v>       0.00131105       0.52766689      -0.06891286 </v>
   <v>      -0.00045984      -0.52661491       0.06980987 </v>
   <v>      -0.00083651       0.52247071       0.06403288 </v>
   <v>       0.00077375      -0.52100138      -0.06458488 </v>
   <v>       0.00108370      -1.71704493       0.57018941 </v>
   <v>      -0.00125328      -1.71720556      -0.57166106 </v>
   <v>       0.00092834       1.71582482       0.57051421 </v>
   <v>      -0.00118197       1.71622384      -0.56861323 </v>
   <v>      -0.00027176       0.08327942       0.06362051 </v>
   <v>      -0.00028502      -0.07840895       0.06325771 </v>
   <v>       0.00011414       0.07834498      -0.06430743 </v>
   <v>       0.00007740      -0.08353492      -0.06334512 </v>
  </varray>
  <varray name="stress" >
   <v>      35.85174178      -0.00042585       0.02478135 </v>
   <v>      -0.00042535    -160.30953410      -0.18982711 </v>
   <v>       0.02478128      -0.18982782    -184.71839280 </v>
  </varray>
  <energy>
   <i name="e_fr_energy">    -88.90022451 </i>
   <i name="e_wo_entrp">    -88.90022451 </i>
   <i name="e_0_energy">     -0.00000000 </i>
  </energy>
  <time name="totalsc">    4.28    5.11</time>
 </calculation>
 <calculation>
  <scstep>
   <time name="dav">    0.06    0.06</time>
   <time name="total">    0.24    0.25</time>
   <energy>
    <i name="alphaZ">    441.37612112 </i>
    <i name="ewald">  -7066.45371462 </i>
    <i name="hartreedc">  -4024.47588594 </i>
    <i name="XCdc">    498.39218509 </i>
    <i name="pawpsdc">  12091.63990677 </i>
    <i name="pawaedc"> -12320.58204342 </i>
    <i name="eentropy">     -0.00000000 </i>
    <i name="bandstr">  -1267.53772204 </i>
    <i name="atom">  11559.05757976 </i>
    <i name="e_fr_energy">    -88.58357329 </i>
    <i name="e_wo_entrp">    -88.58357329 </i>
    <i name="e_0_energy">    -88.58357329 </i>
   </energy>
  </scstep>
  <scstep>
   <time name="diag">    0.01    0.01</time>
   <time name="diis">    0.04    0.04</time>
   <time name="orth">    0.00    0.00</time>
   <time name="total">    0.23    0.23</time>
   <energy>
    <i name="e_fr_energy">    -89.36615669 </i>
    <i name="e_wo_entrp">    -89.36615669 </i>
    <i name="e_0_energy">    -89.36615669 </i>
   </energy>
  </scstep>
  <scstep>
   <time name="diag">    0.01    0.01</time>
   <time name="diis">    0.04    0.04</time>
   <time name="orth">    0.00    0.00</time>
   <time name="total">    0.22    0.22</time>
   <energy>
    <i name="e_fr_energy">    -89.20202036 </i>
    <i name="e_wo_entrp">    -89.20202036 </i>
    <i name="e_0_energy">    -89.20202036 </i>
   </energy>
  </scstep>
  <scstep>
   <time name="diag">    0.01    0.01</time>
   <time name="diis">    0.05    0.05</time>
   <time name="orth">    0.00    0.00</time>
   <time name="total">    0.24    0.24</time>
   <energy>
    <i name="e_fr_energy">    -89.32147792 </i>
    <i name="e_wo_entrp">    -89.32147792 </i>
    <i name="e_0_energy">    -89.32147792 </i>
   </energy>
  </scstep>
  <scstep>
   <time name="diag">    0.01    0.01</time>
   <time name="diis">    0.03    0.03</time>
   <time name="orth">    0.00    0.00</time>
   <time name="total">    0.22    0.22</time>
   <energy>
    <i name="e_fr_energy">    -89.26955898 </i>
    <i name="e_wo_entrp">    -89.26955898 </i>
    <i name="e_0_energy">    -89.26955898 </i>
   </energy>
  </scstep>
  <scstep>
   <time name="diag">    0.01    0.01</time>
   <time name="diis">    0.04    0.04</time>
   <time name="orth">    0.00    0.00</time>
   <time name="total">    0.23    0.23</time>
   <energy>
    <i name="e_fr_energy">    -89.22241635 </i>
    <i name="e_wo_entrp">    -89.22241635 </i>
    <i name="e_0_energy">    -89.22241635 </i>
   </energy>
  </scstep>
  <scstep>
   <time name="diag">    0.01    0.01</time>
   <time name="diis">    0.03    0.03</time>
   <time name="orth">    0.00    0.00</time>
   <time name="total">    0.22    0.22</time>
   <energy>
    <i name="e_fr_energy">    -89.21401183 </i>
    <i name="e_wo_entrp">    -89.21401183 </i>
    <i name="e_0_energy">    -89.21401183 </i>
   </energy>
  </scstep>
  <scstep>
   <time name="diag">    0.01    0.01</time>
   <time name="diis">    0.03    0.03</time>
   <time name="orth">    0.00    0.00</time>
   <time name="total">    0.22    0.22</time>
   <energy>
    <i name="e_fr_energy">    -89.14161559 </i>
    <i name="e_wo_entrp">    -89.14161559 </i>
    <i name="e_0_energy">    -89.14161559 </i>
   </energy>
  </scstep>
  <scstep>
   <time name="diag">    0.01    0.01</time>
   <time name="diis">    0.03    0.03</time>
   <time name="orth">    0.00    0.00</time>
   <time name="total">    0.22    0.22</time>
   <energy>
    <i name="e_fr_energy">    -89.14709114 </i>
    <i name="e_wo_entrp">    -89.14709114 </i>
    <i name="e_0_energy">    -89.14709114 </i>
   </energy>
  </scstep>
  <scstep>
   <time name="diag">    0.01    0.01</time>
   <time name="diis">    0.04    0.04</time>
   <time name="orth">    0.00    0.00</time>
   <time name="total">    0.23    0.23</time>
   <energy>
    <i name="e_fr_energy">    -89.14679764 </i>
    <i name="e_wo_entrp">    -89.14679764 </i>
    <i name="e_0_energy">    -89.14679764 </i>
   </energy>
  </scstep>
  <scstep>
   <time name="diag">    0.01    0.01</time>
   <time name="diis">    0.03    0.03</time>
   <time name="orth">    0.00    0.00</time>
   <time name="total">    0.22    0.22</time>
   <energy>
    <i name="e_fr_energy">    -89.14667453 </i>
    <i name="e_wo_entrp">    -89.14667453 </i>
    <i name="e_0_energy">    -89.14667453 </i>
   </energy>
  </scstep>
  <scstep>
   <time name="diag">    0.01    0.01</time>
   <time name="diis">    0.03    0.03</time>
   <time name="orth">    0.00    0.00</time>
   <time name="total">    0.22    0.22</time>
   <energy>
    <i name="e_fr_energy">    -89.14664652 </i>
    <i name="e_wo_entrp">    -89.14664652 </i>
    <i name="e_0_energy">    -89.14664652 </i>
   </energy>
  </scstep>
  <scstep>
   <time name="diag">    0.01    0.01</time>
   <time name="diis">    0.02    0.02</time>
   <time name="orth">    0.00    0.00</time>
   <time name="total">    0.21    0.21</time>
   <energy>
    <i name="alphaZ">    441.37612112 </i>
    <i name="ewald">  -7066.45371462 </i>
    <i name="hartreedc">  -4032.02696970 </i>
    <i name="XCdc">    498.48839891 </i>
    <i name="pawpsdc">  12390.60061960 </i>
    <i name="pawaedc"> -12619.81186024 </i>
    <i name="eentropy">     -0.00000000 </i>
    <i name="bandstr">  -1260.37682003 </i>
    <i name="atom">  11559.05757976 </i>
    <i name="e_fr_energy">    -89.14664520 </i>
    <i name="e_wo_entrp">    -89.14664520 </i>
    <i name="e_0_energy">    -89.14664520 </i>
   </energy>
  </scstep>
  <structure>
   <crystal>
    <varray name="basis" >
     <v>       2.91633100       0.00000000       0.00000000 </v>
     <v>      -0.00000100       4.58096600       0.00014500 </v>
     <v>       0.00000200       0.00030000       9.43439300 </v>
    </varray>
    <i name="volume">    126.03984071 </i>
    <varray name="rec_basis" >
     <v>       0.34289661       0.00000007      -0.00000007 </v>
     <v>       0.00000000       0.21829457      -0.00000694 </v>
     <v>       0.00000000      -0.00000336       0.10599516 </v>
    </varray>
   </crystal>
   <varray name="positions" >
    <v>       0.25000164       0.01823666       0.86447561 </v>
    <v>       0.74999787       0.98175328       0.13551799 </v>
    <v>       0.75000223       0.51821984       0.63551732 </v>
    <v>       0.25000175       0.48177234       0.36448640 </v>
    <v>       0.24999939       0.65976516       0.54425033 </v>
    <v>       0.74999858       0.15976199       0.95575709 </v>
    <v>       0.25000060       0.84026137       0.04425713 </v>
    <v>       0.75000001       0.34024552       0.45574258 </v>
    <v>       0.25000049       0.17523730       0.21379913 </v>
    <v>       0.24999998       0.32473265       0.71374342 </v>
    <v>       0.74999893       0.67525587       0.28625923 </v>
    <v>       0.74999852       0.82475903       0.78619479 </v>
   </varray>
  </structure>
  <varray name="forces" >
   <v>      -0.00005558       0.52603408      -0.24870759 </v>
   <v>       0.00002308      -0.52193027       0.25208572 </v>
   <v>      -0.00024515       0.52783572       0.24779457 </v>
   <v>      -0.00019813      -0.52636891      -0.24885749 </v>
   <v>       0.00017807       0.07430024      -0.22690183 </v>
   <v>      -0.00001811       0.07061112       0.22001976 </v>
   <v>      -0.00001827      -0.07484121      -0.22483075 </v>
   <v>       0.00007483      -0.07609320       0.22849454 </v>
   <v>       0.00003885       0.99566835       0.71090246 </v>
   <v>       0.00008817      -1.00052832       0.71602457 </v>
   <v>       0.00014720       1.00086054      -0.71739523 </v>
   <v>      -0.00001496      -0.99554814      -0.70862874 </v>
  </varray>
  <varray name="stress" >
   <v>      84.48395953       0.00242480      -0.00152757 </v>
   <v>       0.00242545     -67.52857295      -0.14101306 </v>
   <v>      -0.00152770      -0.14101214    -109.02135702 </v>
  </varray>
  <energy>
   <i name="e_fr_energy">    -89.14664520 </i>
   <i name="e_wo_entrp">    -89.14664520 </i>
   <i name="e_0_energy">     -0.00000000 </i>
  </energy>
  <time name="totalsc">    3.41    3.47</time>
 </calculation>
 <calculation>
  <scstep>
   <time name="dav">    0.07    0.07</time>
   <time name="total">    0.25    0.26</time>
   <energy>
    <i name="alphaZ">    441.37612112 </i>
    <i name="ewald">  -7103.37078798 </i>
    <i name="hartreedc">  -3997.85474570 </i>
    <i name="XCdc">    498.22333702 </i>
    <i name="pawpsdc">  12390.47175861 </i>
    <i name="pawaedc"> -12619.68372556 </i>
    <i name="eentropy">     -0.00000000 </i>
    <i name="bandstr">  -1257.36066362 </i>
    <i name="atom">  11559.05757976 </i>
    <i name="e_fr_energy">    -89.14112634 </i>
    <i name="e_wo_entrp">    -89.14112634 </i>
    <i name="e_0_energy">    -89.14112634 </i>
   </energy>
  </scstep>
  <scstep>
   <time name="diag">    0.01    0.01</time>
   <time name="diis">    0.04    0.04</time>
   <time name="orth">    0.00    0.00</time>
   <time name="total">    0.23    0.23</time>
   <energy>
    <i name="e_fr_energy">    -89.17160473 </i>
    <i name="e_wo_entrp">    -89.17160473 </i>
    <i name="e_0_energy">    -89.17160473 </i>
   </energy>
  </scstep>
  <scstep>
   <time name="diag">    0.01    0.01</time>
   <time name="diis">    0.04    0.04</time>
   <time name="orth">    0.00    0.00</time>
   <time name="total">    0.23    0.23</time>
   <energy>
    <i name="e_fr_energy">    -89.19476950 </i>
    <i name="e_wo_entrp">    -89.19476950 </i>
    <i name="e_0_energy">    -89.19476950 </i>
   </energy>
  </scstep>
  <scstep>
   <time name="diag">    0.01    0.01</time>
   <time name="diis">    0.03    0.03</time>
   <time name="orth">    0.00    0.00</time>
   <time name="total">    0.22    0.22</time>
   <energy>
    <i name="e_fr_energy">    -89.16095828 </i>
    <i name="e_wo_entrp">    -89.16095828 </i>
    <i name="e_0_energy">    -89.16095828 </i>
   </energy>
  </scstep>
  <scstep>
   <time name="diag">    0.01    0.01</time>
   <time name="diis">    0.05    0.05</time>
   <time name="orth">    0.00    0.00</time>
   <time name="total">    0.24    0.24</time>
   <energy>
    <i name="e_fr_energy">    -89.17889790 </i>
    <i name="e_wo_entrp">    -89.17889790 </i>
    <i name="e_0_energy">    -89.17889790 </i>
   </energy>
  </scstep>
  <scstep>
   <time name="diag">    0.01    0.01</time>
   <time name="diis">    0.03    0.03</time>
   <time name="orth">    0.00    0.00</time>
   <time name="total">    0.22    0.22</time>
   <energy>
    <i name="e_fr_energy">    -89.16859055 </i>
    <i name="e_wo_entrp">    -89.16859055 </i>
    <i name="e_0_energy">    -89.16859055 </i>
   </energy>
  </scstep>
  <scstep>
   <time name="diag">    0.01    0.01</time>
   <time name="diis">    0.03    0.03</time>
   <time name="orth">    0.00    0.00</time>
   <time name="total">    0.22    0.22</time>
   <energy>
    <i name="e_fr_energy">    -89.16987568 </i>
    <i name="e_wo_entrp">    -89.16987568 </i>
    <i name="e_0_energy">    -89.16987568 </i>
   </energy>
  </scstep>
  <scstep>
   <time name="diag">    0.01    0.01</time>
   <time name="diis">    0.03    0.03</time>
   <time name="orth">    0.00    0.00</time>
   <time name="total">    0.22    0.22</time>
   <energy>
    <i name="e_fr_energy">    -89.16599391 </i>
    <i name="e_wo_entrp">    -89.16599391 </i>
    <i name="e_0_energy">    -89.16599391 </i>
   </energy>
  </scstep>
  <scstep>
   <time name="diag">    0.01    0.01</time>
   <time name="diis">    0.05    0.05</time>
   <time name="orth">    0.00    0.00</time>
   <time name="total">    0.24    0.24</time>
   <energy>
    <i name="e_fr_energy">    -89.16625426 </i>
    <i name="e_wo_entrp">    -89.16625426 </i>
    <i name="e_0_energy">    -89.16625426 </i>
   </energy>
  </scstep>
  <scstep>
   <time name="diag">    0.01    0.01</time>
   <time name="diis">    0.02    0.02</time>
   <time name="orth">    0.00    0.00</time>
   <time name="total">    0.21    0.21</time>
   <energy>
    <i name="alphaZ">    441.37612112 </i>
    <i name="ewald">  -7103.37078798 </i>
    <i name="hartreedc">  -3996.39232229 </i>
    <i name="XCdc">    498.21401949 </i>
    <i name="pawpsdc">  12319.31383437 </i>
    <i name="pawaedc"> -12548.45561068 </i>
    <i name="eentropy">     -0.00000000 </i>
    <i name="bandstr">  -1258.90908468 </i>
    <i name="atom">  11559.05757976 </i>
    <i name="e_fr_energy">    -89.16625090 </i>
    <i name="e_wo_entrp">    -89.16625090 </i>
    <i name="e_0_energy">    -89.16625090 </i>
   </energy>
  </scstep>
  <structure>
   <crystal>
    <varray name="basis" >
     <v>       2.91633100       0.00000000       0.00000000 </v>
     <v>      -0.00000100       4.58096600       0.00014500 </v>
     <v>       0.00000200       0.00030000       9.43439300 </v>
    </varray>
    <i name="volume">    126.03984071 </i>
    <varray name="rec_basis" >
     <v>       0.34289661       0.00000007      -0.00000007 </v>
     <v>       0.00000000       0.21829457      -0.00000694 </v>
     <v>       0.00000000      -0.00000336       0.10599516 </v>
    </varray>
   </crystal>
   <varray name="positions" >
    <v>       0.25000150       0.01849277       0.86452114 </v>
    <v>       0.74999797       0.98149853       0.13547351 </v>
    <v>       0.75000204       0.51848118       0.63547086 </v>
    <v>       0.25000169       0.48151158       0.36453187 </v>
    <v>       0.24999944       0.66422050       0.54363124 </v>
    <v>       0.74999870       0.16420711       0.95637403 </v>
    <v>       0.25000055       0.83581435       0.04363941 </v>
    <v>       0.75000001       0.33578910       0.45636193 </v>
    <v>       0.25000045       0.17659759       0.21401147 </v>
    <v>       0.24999998       0.32336323       0.71395523 </v>
    <v>       0.74999902       0.67662610       0.28604719 </v>
    <v>       0.74999865       0.82339896       0.78598313 </v>
   </varray>
  </structure>
  <varray name="forces" >
   <v>      -0.00007132       0.55913945      -0.20037994 </v>
   <v>       0.00004607      -0.55445183       0.20422825 </v>
   <v>      -0.00019660       0.55894202       0.19952986 </v>
   <v>      -0.00015908      -0.55767421      -0.20134882 </v>
   <v>       0.00014904      -0.38387664      -0.01581552 </v>
   <v>      -0.00000063      -0.38725118       0.01083214 </v>
   <v>      -0.00001595       0.38288065      -0.01524006 </v>
   <v>       0.00002149       0.38209120       0.01699699 </v>
   <v>       0.00003164       0.78645004       0.55235641 </v>
   <v>       0.00009066      -0.78917294       0.55653120 </v>
   <v>       0.00008897       0.78960415      -0.55766339 </v>
   <v>       0.00001570      -0.78668070      -0.55002711 </v>
  </varray>
  <varray name="stress" >
   <v>      70.78714472       0.00183313      -0.00138895 </v>
   <v>       0.00183323     -90.20689557      -0.18409440 </v>
   <v>      -0.00138886      -0.18409381    -129.08335820 </v>
  </varray>
  <energy>
   <i name="e_fr_energy">    -89.16625090 </i>
   <i name="e_wo_entrp">    -89.16625090 </i>
   <i name="e_0_energy">     -0.00000000 </i>
  </energy>
  <time name="totalsc">    2.77    2.83</time>
 </calculation>
 <calculation>
  <scstep>
   <time name="dav">    0.06    0.06</time>
   <time name="total">    0.24    0.24</time>
   <energy>
    <i name="alphaZ">    441.37612112 </i>
    <i name="ewald">  -7077.92889980 </i>
    <i name="hartreedc">  -4019.64219842 </i>
    <i name="XCdc">    498.37981922 </i>
    <i name="pawpsdc">  12319.20861310 </i>
    <i name="pawaedc"> -12548.34703115 </i>
    <i name="eentropy">     -0.00000000 </i>
    <i name="bandstr">  -1260.53824730 </i>
    <i name="atom">  11559.05757976 </i>
    <i name="e_fr_energy">    -88.43424347 </i>
    <i name="e_wo_entrp">    -88.43424347 </i>
    <i name="e_0_energy">    -88.43424347 </i>
   </energy>
  </scstep>
  <scstep>
   <time name="diag">    0.01    0.01</time>
   <time name="diis">    0.03    0.03</time>
   <time name="orth">    0.00    0.00</time>
   <time name="total">    0.22    0.22</time>
   <energy>
    <i name="e_fr_energy">    -89.42291849 </i>
    <i name="e_wo_entrp">    -89.42291849 </i>
    <i name="e_0_energy">    -89.42291849 </i>
   </energy>
  </scstep>
  <scstep>
   <time name="diag">    0.01    0.01</time>
   <time name="diis">    0.03    0.03</time>
   <time name="orth">    0.00    0.00</time>
   <time name="total">    0.21    0.21</time>
   <energy>
    <i name="e_fr_energy">    -89.43989378 </i>
    <i name="e_wo_entrp">    -89.43989378 </i>
    <i name="e_0_energy">    -89.43989378 </i>
   </energy>
  </scstep>
  <scstep>
   <time name="diag">    0.01    0.01</time>
   <time name="diis">    0.03    0.03</time>
   <time name="orth">    0.00    0.00</time>
   <time name="total">    0.21    0.21</time>
   <energy>
    <i name="e_fr_energy">    -89.33956547 </i>
    <i name="e_wo_entrp">    -89.33956547 </i>
    <i name="e_0_energy">    -89.33956547 </i>
   </energy>
  </scstep>
  <scstep>
   <time name="diag">    0.01    0.01</time>
   <time name="diis">    0.03    0.03</time>
   <time name="orth">    0.00    0.00</time>
   <time name="total">    0.21    0.22</time>
   <energy>
    <i name="e_fr_energy">    -89.38517408 </i>
    <i name="e_wo_entrp">    -89.38517408 </i>
    <i name="e_0_energy">    -89.38517408 </i>
   </energy>
  </scstep>
  <scstep>
   <time name="diag">    0.01    0.01</time>
   <time name="diis">    0.03    0.03</time>
   <time name="orth">    0.00    0.00</time>
   <time name="total">    0.21    0.21</time>
   <energy>
    <i name="e_fr_energy">    -89.33330829 </i>
    <i name="e_wo_entrp">    -89.33330829 </i>
    <i name="e_0_energy">    -89.33330829 </i>
   </energy>
  </scstep>
  <scstep>
   <time name="diag">    0.01    0.01</time>
   <time name="diis">    0.05    0.05</time>
   <time name="orth">    0.00    0.00</time>
   <time name="total">    0.24    0.24</time>
   <energy>
    <i name="e_fr_energy">    -89.35246154 </i>
    <i name="e_wo_entrp">    -89.35246154 </i>
    <i name="e_0_energy">    -89.35246154 </i>
   </energy>
  </scstep>
  <scstep>
   <time name="diag">    0.01    0.01</time>
   <time name="diis">    0.03    0.03</time>
   <time name="orth">    0.00    0.00</time>
   <time name="total">    0.21    0.21</time>
   <energy>
    <i name="e_fr_energy">    -89.33961870 </i>
    <i name="e_wo_entrp">    -89.33961870 </i>
    <i name="e_0_energy">    -89.33961870 </i>
   </energy>
  </scstep>
  <scstep>
   <time name="diag">    0.01    0.01</time>
   <time name="diis">    0.04    0.04</time>
   <time name="orth">    0.00    0.00</time>
   <time name="total">    0.23    0.23</time>
   <energy>
    <i name="e_fr_energy">    -89.33779905 </i>
    <i name="e_wo_entrp">    -89.33779905 </i>
    <i name="e_0_energy">    -89.33779905 </i>
   </energy>
  </scstep>
  <scstep>
   <time name="diag">    0.01    0.01</time>
   <time name="diis">    0.04    0.04</time>
   <time name="orth">    0.00    0.00</time>
   <time name="total">    0.22    0.22</time>
   <energy>
    <i name="e_fr_energy">    -89.33766403 </i>
    <i name="e_wo_entrp">    -89.33766403 </i>
    <i name="e_0_energy">    -89.33766403 </i>
   </energy>
  </scstep>
  <scstep>
   <time name="diag">    0.01    0.01</time>
   <time name="diis">    0.05    0.05</time>
   <time name="orth">    0.00    0.00</time>
   <time name="total">    0.23    0.23</time>
   <energy>
    <i name="e_fr_energy">    -89.33760299 </i>
    <i name="e_wo_entrp">    -89.33760299 </i>
    <i name="e_0_energy">    -89.33760299 </i>
   </energy>
  </scstep>
  <scstep>
   <time name="diag">    0.01    0.01</time>
   <time name="diis">    0.02    0.02</time>
   <time name="orth">    0.00    0.00</time>
   <time name="total">    0.20    0.20</time>
   <energy>
    <i name="alphaZ">    441.37612112 </i>
    <i name="ewald">  -7077.92889980 </i>
    <i name="hartreedc">  -4020.89124064 </i>
    <i name="XCdc">    498.41595359 </i>
    <i name="pawpsdc">  12371.17046059 </i>
    <i name="pawaedc"> -12600.56187883 </i>
    <i name="eentropy">     -0.00000000 </i>
    <i name="bandstr">  -1259.97569425 </i>
    <i name="atom">  11559.05757976 </i>
    <i name="e_fr_energy">    -89.33759847 </i>
    <i name="e_wo_entrp">    -89.33759847 </i>
    <i name="e_0_energy">    -89.33759847 </i>
   </energy>
  </scstep>
  <structure>
   <crystal>
    <varray name="basis" >
     <v>       2.91633100       0.00000000       0.00000000 </v>
     <v>      -0.00000100       4.58096600       0.00014500 </v>
     <v>       0.00000200       0.00030000       9.43439300 </v>
    </varray>
    <i name="volume">    126.03984071 </i>
    <varray name="rec_basis" >
     <v>       0.34289661       0.00000007      -0.00000007 </v>
     <v>       0.00000000       0.21829457      -0.00000694 </v>
     <v>       0.00000000      -0.00000336       0.10599516 </v>
    </varray>
   </crystal>
   <varray name="positions" >
    <v>       0.25000034       0.02469324       0.86336443 </v>
    <v>       0.74999871       0.97535071       0.13665077 </v>
    <v>       0.74999865       0.52467473       0.63662343 </v>
    <v>       0.24999887       0.47533209       0.36337001 </v>
    <v>       0.25000209       0.65597117       0.54407682 </v>
    <v>       0.74999858       0.15592783       0.95590265 </v>
    <v>       0.25000031       0.84404507       0.04408688 </v>
    <v>       0.75000040       0.34401885       0.45592271 </v>
    <v>       0.25000106       0.18445634       0.21690832 </v>
    <v>       0.25000161       0.31548068       0.71687610 </v>
    <v>       0.75000055       0.68451291       0.28312021 </v>
    <v>       0.74999882       0.81553738       0.78309867 </v>
   </varray>
  </structure>
  <varray name="forces" >
   <v>       0.00001004      -0.03962408      -0.20229943 </v>
   <v>       0.00008587       0.03279432       0.19702775 </v>
   <v>       0.00020349      -0.03444886       0.20352097 </v>
   <v>       0.00019556       0.03517321      -0.20124801 </v>
   <v>      -0.00016336       0.33896072       0.18979873 </v>
   <v>       0.00006001       0.34375044      -0.18638192 </v>
   <v>      -0.00004364      -0.33881123       0.19150157 </v>
   <v>      -0.00008988      -0.33847180      -0.19046630 </v>
   <v>      -0.00002759       0.39998779       0.25220873 </v>
   <v>      -0.00011233      -0.39654467       0.25299403 </v>
   <v>      -0.00011156       0.39751044      -0.25234082 </v>
   <v>      -0.00000661      -0.40027628      -0.25431530 </v>
  </varray>
  <varray name="stress" >
   <v>     109.45286142       0.00044709      -0.00097763 </v>
   <v>       0.00044747     -79.90111018      -0.01034312 </v>
   <v>      -0.00097781      -0.01034260    -149.31150298 </v>
  </varray>
  <energy>
   <i name="e_fr_energy">    -89.33759847 </i>
   <i name="e_wo_entrp">    -89.33759847 </i>
   <i name="e_0_energy">     -0.00000000 </i>
  </energy>
  <time name="totalsc">    3.09    3.14</time>
 </calculation>
 <calculation>
  <scstep>
   <time name="dav">    0.08    0.08</time>
   <time name="total">    0.25    0.26</time>
   <energy>
    <i name="alphaZ">    441.37612112 </i>
    <i name="ewald">  -7073.02279656 </i>
    <i name="hartreedc">  -4025.34018218 </i>
    <i name="XCdc">    498.45404313 </i>
    <i name="pawpsdc">  12371.15968406 </i>
    <i name="pawaedc"> -12600.55207871 </i>
    <i name="eentropy">     -0.00000000 </i>
    <i name="bandstr">  -1260.44940258 </i>
    <i name="atom">  11559.05757976 </i>
    <i name="e_fr_energy">    -89.31703197 </i>
    <i name="e_wo_entrp">    -89.31703197 </i>
    <i name="e_0_energy">    -89.31703197 </i>
   </energy>
  </scstep>
  <scstep>
   <time name="diag">    0.01    0.01</time>
   <time name="diis">    0.03    0.03</time>
   <time name="orth">    0.00    0.00</time>
   <time name="total">    0.21    0.21</time>
   <energy>
    <i name="e_fr_energy">    -89.34375423 </i>
    <i name="e_wo_entrp">    -89.34375423 </i>
    <i name="e_0_energy">    -89.34375423 </i>
   </energy>
  </scstep>
  <scstep>
   <time name="diag">    0.01    0.01</time>
   <time name="diis">    0.05    0.05</time>
   <time name="orth">    0.00    0.00</time>
   <time name="total">    0.23    0.23</time>
   <energy>
    <i name="e_fr_energy">    -89.34425927 </i>
    <i name="e_wo_entrp">    -89.34425927 </i>
    <i name="e_0_energy">    -89.34425927 </i>
   </energy>
  </scstep>
  <scstep>
   <time name="diag">    0.01    0.01</time>
   <time name="diis">    0.03    0.03</time>
   <time name="orth">    0.00    0.00</time>
   <time name="total">    0.21    0.21</time>
   <energy>
    <i name="e_fr_energy">    -89.34140777 </i>
    <i name="e_wo_entrp">    -89.34140777 </i>
    <i name="e_0_energy">    -89.34140777 </i>
   </energy>
  </scstep>
  <scstep>
   <time name="diag">    0.01    0.01</time>
   <time name="diis">    0.04    0.04</time>
   <time name="orth">    0.00    0.00</time>
   <time name="total">    0.23    0.23</time>
   <energy>
    <i name="e_fr_energy">    -89.34174063 </i>
    <i name="e_wo_entrp">    -89.34174063 </i>
    <i name="e_0_energy">    -89.34174063 </i>
   </energy>
  </scstep>
  <scstep>
   <time name="diag">    0.01    0.01</time>
   <time name="diis">    0.03    0.03</time>
   <time name="orth">    0.00    0.00</time>
   <time name="total">    0.21    0.21</time>
   <energy>
    <i name="e_fr_energy">    -89.34187922 </i>
    <i name="e_wo_entrp">    -89.34187922 </i>
    <i name="e_0_energy">    -89.34187922 </i>
   </energy>
  </scstep>
  <scstep>
   <time name="diag">    0.01    0.01</time>
   <time name="diis">    0.03    0.03</time>
   <time name="orth">    0.00    0.00</time>
   <time name="total">    0.21    0.21</time>
   <energy>
    <i name="e_fr_energy">    -89.34314970 </i>
    <i name="e_wo_entrp">    -89.34314970 </i>
    <i name="e_0_energy">    -89.34314970 </i>
   </energy>
  </scstep>
  <scstep>
   <time name="diag">    0.01    0.01</time>
   <time name="diis">    0.03    0.03</time>
   <time name="orth">    0.00    0.00</time>
   <time name="total">    0.21    0.21</time>
   <energy>
    <i name="e_fr_energy">    -89.34120950 </i>
    <i name="e_wo_entrp">    -89.34120950 </i>
    <i name="e_0_energy">    -89.34120950 </i>
   </energy>
  </scstep>
  <scstep>
   <time name="diag">    0.01    0.01</time>
   <time name="diis">    0.04    0.04</time>
   <time name="orth">    0.00    0.00</time>
   <time name="total">    0.22    0.22</time>
   <energy>
    <i name="e_fr_energy">    -89.34147473 </i>
    <i name="e_wo_entrp">    -89.34147473 </i>
    <i name="e_0_energy">    -89.34147473 </i>
   </energy>
  </scstep>
  <scstep>
   <time name="diag">    0.01    0.01</time>
   <time name="diis">    0.03    0.03</time>
   <time name="orth">    0.00    0.00</time>
   <time name="total">    0.20    0.21</time>
   <energy>
    <i name="alphaZ">    441.37612112 </i>
    <i name="ewald">  -7073.02279656 </i>
    <i name="hartreedc">  -4025.56210825 </i>
    <i name="XCdc">    498.46455137 </i>
    <i name="pawpsdc">  12386.26209602 </i>
    <i name="pawaedc"> -12615.70532763 </i>
    <i name="eentropy">     -0.00000000 </i>
    <i name="bandstr">  -1260.21158176 </i>
    <i name="atom">  11559.05757976 </i>
    <i name="e_fr_energy">    -89.34146592 </i>
    <i name="e_wo_entrp">    -89.34146592 </i>
    <i name="e_0_energy">    -89.34146592 </i>
   </energy>
  </scstep>
  <structure>
   <crystal>
    <varray name="basis" >
     <v>       2.91633100       0.00000000       0.00000000 </v>
     <v>      -0.00000100       4.58096600       0.00014500 </v>
     <v>       0.00000200       0.00030000       9.43439300 </v>
    </varray>
    <i name="volume">    126.03984071 </i>
    <varray name="rec_basis" >
     <v>       0.34289661       0.00000007      -0.00000007 </v>
     <v>       0.00000000       0.21829457      -0.00000694 </v>
     <v>       0.00000000      -0.00000336       0.10599516 </v>
    </varray>
   </crystal>
   <varray name="positions" >
    <v>       0.25000014       0.02573051       0.86317092 </v>
    <v>       0.74999884       0.97432226       0.13684771 </v>
    <v>       0.74999809       0.52571084       0.63681624 </v>
    <v>       0.24999840       0.47429834       0.36317565 </v>
    <v>       0.25000253       0.65459116       0.54415136 </v>
    <v>       0.74999856       0.15454281       0.95582379 </v>
    <v>       0.25000027       0.84542197       0.04416174 </v>
    <v>       0.75000047       0.34539558       0.45584923 </v>
    <v>       0.25000116       0.18577101       0.21739293 </v>
    <v>       0.25000188       0.31416203       0.71736472 </v>
    <v>       0.75000081       0.68583227       0.28263056 </v>
    <v>       0.74999885       0.81422223       0.78261614 </v>
   </varray>
  </structure>
  <varray name="forces" >
   <v>       0.00000563      -0.09979333      -0.18159378 </v>
   <v>       0.00008084       0.09123559       0.17473604 </v>
   <v>       0.00027487      -0.09513112       0.17981042 </v>
   <v>       0.00027142       0.09392731      -0.17655499 </v>
   <v>      -0.00022435       0.48199856       0.24064195 </v>
   <v>       0.00006432       0.48766267      -0.23672094 </v>
   <v>      -0.00004608      -0.48089244       0.24339468 </v>
   <v>      -0.00011269      -0.48024279      -0.24240923 </v>
   <v>      -0.00003633       0.35904585       0.20649303 </v>
   <v>      -0.00012969      -0.35516848       0.20831418 </v>
   <v>      -0.00013667       0.35638614      -0.20699203 </v>
   <v>      -0.00001127      -0.35902796      -0.20911932 </v>
  </varray>
  <varray name="stress" >
   <v>     117.20800923       0.00018135      -0.00097048 </v>
   <v>       0.00018126     -76.87560232      -0.04683472 </v>
   <v>      -0.00096994      -0.04683430    -152.46500405 </v>
  </varray>
  <energy>
   <i name="e_fr_energy">    -89.34146592 </i>
   <i name="e_wo_entrp">    -89.34146592 </i>
   <i name="e_0_energy">     -0.00000000 </i>
  </energy>
  <time name="totalsc">    2.64    2.69</time>
 </calculation>
 <calculation>
  <scstep>
   <time name="dav">    0.06    0.06</time>
   <time name="total">    0.24    0.26</time>
   <energy>
    <i name="alphaZ">    441.37612112 </i>
    <i name="ewald">  -7116.87319353 </i>
    <i name="hartreedc">  -3984.30424998 </i>
    <i name="XCdc">    498.17663733 </i>
    <i name="pawpsdc">  12386.34687649 </i>
    <i name="pawaedc"> -12615.79214238 </i>
    <i name="eentropy">     -0.00000000 </i>
    <i name="bandstr">  -1257.17940305 </i>
    <i name="atom">  11559.05757976 </i>
    <i name="e_fr_energy">    -89.19177423 </i>
    <i name="e_wo_entrp">    -89.19177423 </i>
    <i name="e_0_energy">    -89.19177423 </i>
   </energy>
  </scstep>
  <scstep>
   <time name="diag">    0.01    0.01</time>
   <time name="diis">    0.03    0.03</time>
   <time name="orth">    0.00    0.00</time>
   <time name="total">    0.22    0.22</time>
   <energy>
    <i name="e_fr_energy">    -89.43173494 </i>
    <i name="e_wo_entrp">    -89.43173494 </i>
    <i name="e_0_energy">    -89.43173494 </i>
   </energy>
  </scstep>
  <scstep>
   <time name="diag">    0.01    0.01</time>
   <time name="diis">    0.03    0.03</time>
   <time name="orth">    0.00    0.00</time>
   <time name="total">    0.21    0.21</time>
   <energy>
    <i name="e_fr_energy">    -89.49615531 </i>
    <i name="e_wo_entrp">    -89.49615531 </i>
    <i name="e_0_energy">    -89.49615531 </i>
   </energy>
  </scstep>
  <scstep>
   <time name="diag">    0.01    0.01</time>
   <time name="diis">    0.03    0.03</time>
   <time name="orth">    0.00    0.00</time>
   <time name="total">    0.21    0.21</time>
   <energy>
    <i name="e_fr_energy">    -89.40068088 </i>
    <i name="e_wo_entrp">    -89.40068088 </i>
    <i name="e_0_energy">    -89.40068088 </i>
   </energy>
  </scstep>
  <scstep>
   <time name="diag">    0.01    0.01</time>
   <time name="diis">    0.04    0.04</time>
   <time name="orth">    0.00    0.00</time>
   <time name="total">    0.23    0.23</time>
   <energy>
    <i name="e_fr_energy">    -89.41189598 </i>
    <i name="e_wo_entrp">    -89.41189598 </i>
    <i name="e_0_energy">    -89.41189598 </i>
   </energy>
  </scstep>
  <scstep>
   <time name="diag">    0.01    0.01</time>
   <time name="diis">    0.04    0.04</time>
   <time name="orth">    0.00    0.00</time>
   <time name="total">    0.23    0.23</time>
   <energy>
    <i name="e_fr_energy">    -89.42737328 </i>
    <i name="e_wo_entrp">    -89.42737328 </i>
    <i name="e_0_energy">    -89.42737328 </i>
   </energy>
  </scstep>
  <scstep>
   <time name="diag">    0.01    0.01</time>
   <time name="diis">    0.03    0.03</time>
   <time name="orth">    0.00    0.00</time>
   <time name="total">    0.21    0.21</time>
   <energy>
    <i name="e_fr_energy">    -89.41161814 </i>
    <i name="e_wo_entrp">    -89.41161814 </i>
    <i name="e_0_energy">    -89.41161814 </i>
   </energy>
  </scstep>
  <scstep>
   <time name="diag">    0.01    0.01</time>
   <time name="diis">    0.03    0.03</time>
   <time name="orth">    0.00    0.00</time>
   <time name="total">    0.21    0.21</time>
   <energy>
    <i name="e_fr_energy">    -89.41049758 </i>
    <i name="e_wo_entrp">    -89.41049758 </i>
    <i name="e_0_energy">    -89.41049758 </i>
   </energy>
  </scstep>
  <scstep>
   <time name="diag">    0.01    0.01</time>
   <time name="diis">    0.03    0.03</time>
   <time name="orth">    0.00    0.00</time>
   <time name="total">    0.21    0.21</time>
   <energy>
    <i name="e_fr_energy">    -89.41042170 </i>
    <i name="e_wo_entrp">    -89.41042170 </i>
    <i name="e_0_energy">    -89.41042170 </i>
   </energy>
  </scstep>
  <scstep>
   <time name="diag">    0.01    0.01</time>
   <time name="diis">    0.03    0.03</time>
   <time name="orth">    0.00    0.00</time>
   <time name="total">    0.21    0.21</time>
   <energy>
    <i name="e_fr_energy">    -89.41041216 </i>
    <i name="e_wo_entrp">    -89.41041216 </i>
    <i name="e_0_energy">    -89.41041216 </i>
   </energy>
  </scstep>
  <scstep>
   <time name="diag">    0.01    0.01</time>
   <time name="diis">    0.03    0.03</time>
[...]
        <r>  0.0000  0.0091  0.0277  0.0000  0.0000  0.0000  0.0000  0.0000  0.0000 </r>
        <r>  0.0000  0.0092  0.0278  0.0000  0.0000  0.0000  0.0000  0.0000  0.0000 </r>
        <r>  0.0000  0.0090  0.0276  0.0000  0.0000  0.0000  0.0000  0.0000  0.0000 </r>
        <r>  0.0000  0.0091  0.0277  0.0000  0.0000  0.0000  0.0000  0.0000  0.0000 </r>
        <r>  0.0002  0.0858  0.0630  0.0000  0.0000  0.0000  0.0000  0.0000  0.0000 </r>
        <r>  0.0002  0.0863  0.0635  0.0000  0.0000  0.0000  0.0000  0.0000  0.0000 </r>
        <r>  0.0002  0.0858  0.0629  0.0000  0.0000  0.0000  0.0000  0.0000  0.0000 </r>
        <r>  0.0002  0.0863  0.0633  0.0000  0.0000  0.0000  0.0000  0.0000  0.0000 </r>
       </set>
       <set comment="band 45">
        <r>  0.0000  0.0000  0.0000  0.0000  0.1742  0.0000  0.0000  0.0570  0.0000 </r>
        <r>  0.0000  0.0000  0.0000  0.0000  0.1799  0.0000  0.0000  0.0590  0.0000 </r>
        <r>  0.0000  0.0000  0.0000  0.0000  0.1744  0.0000  0.0000  0.0570  0.0000 </r>
        <r>  0.0000  0.0000  0.0000  0.0000  0.1798  0.0000  0.0000  0.0589  0.0000 </r>
        <r>  0.0000  0.0000  0.0000  0.0001  0.0000  0.0000  0.0000  0.0000  0.0000 </r>
        <r>  0.0000  0.0000  0.0000  0.0001  0.0000  0.0000  0.0000  0.0000  0.0000 </r>
        <r>  0.0000  0.0000  0.0000  0.0001  0.0000  0.0000  0.0000  0.0000  0.0000 </r>
        <r>  0.0000  0.0000  0.0000  0.0001  0.0000  0.0000  0.0000  0.0000  0.0000 </r>
        <r>  0.0000  0.0000  0.0000  0.0005  0.0000  0.0000  0.0000  0.0000  0.0000 </r>
        <r>  0.0000  0.0000  0.0000  0.0005  0.0000  0.0000  0.0000  0.0000  0.0000 </r>
        <r>  0.0000  0.0000  0.0000  0.0005  0.0000  0.0000  0.0000  0.0000  0.0000 </r>
        <r>  0.0000  0.0000  0.0000  0.0005  0.0000  0.0000  0.0000  0.0000  0.0000 </r>
       </set>
       <set comment="band 46">
        <r>  0.0000  0.0000  0.0000  0.0001  0.1763  0.0000  0.0000  0.0640  0.0000 </r>
        <r>  0.0000  0.0000  0.0000  0.0001  0.1708  0.0000  0.0000  0.0622  0.0000 </r>
        <r>  0.0000  0.0000  0.0000  0.0001  0.1765  0.0000  0.0000  0.0640  0.0000 </r>
        <r>  0.0000  0.0000  0.0000  0.0001  0.1708  0.0000  0.0000  0.0621  0.0000 </r>
        <r>  0.0000  0.0000  0.0000  0.0000  0.0000  0.0000  0.0000  0.0000  0.0000 </r>
        <r>  0.0000  0.0000  0.0000  0.0000  0.0000  0.0000  0.0000  0.0000  0.0000 </r>
        <r>  0.0000  0.0000  0.0000  0.0000  0.0000  0.0000  0.0000  0.0000  0.0000 </r>
        <r>  0.0000  0.0000  0.0000  0.0000  0.0000  0.0000  0.0000  0.0000  0.0000 </r>
        <r>  0.0000  0.0000  0.0000  0.0012  0.0000  0.0000  0.0000  0.0000  0.0000 </r>
        <r>  0.0000  0.0000  0.0000  0.0012  0.0000  0.0000  0.0000  0.0000  0.0000 </r>
        <r>  0.0000  0.0000  0.0000  0.0012  0.0000  0.0000  0.0000  0.0000  0.0000 </r>
        <r>  0.0000  0.0000  0.0000  0.0012  0.0000  0.0000  0.0000  0.0000  0.0000 </r>
       </set>
       <set comment="band 47">
        <r>  0.0002  0.0002  0.0009  0.0000  0.0000  0.0785  0.1098  0.0000  0.0258 </r>
        <r>  0.0002  0.0002  0.0010  0.0000  0.0000  0.0839  0.1162  0.0000  0.0275 </r>
        <r>  0.0002  0.0002  0.0009  0.0000  0.0000  0.0787  0.1098  0.0000  0.0259 </r>
        <r>  0.0002  0.0002  0.0010  0.0000  0.0000  0.0839  0.1162  0.0000  0.0275 </r>
        <r>  0.0002  0.0016  0.0000  0.0000  0.0000  0.0000  0.0000  0.0000  0.0000 </r>
        <r>  0.0002  0.0015  0.0000  0.0000  0.0000  0.0000  0.0000  0.0000  0.0000 </r>
        <r>  0.0002  0.0016  0.0000  0.0000  0.0000  0.0000  0.0000  0.0000  0.0000 </r>
        <r>  0.0002  0.0016  0.0000  0.0000  0.0000  0.0000  0.0000  0.0000  0.0000 </r>
        <r>  0.0001  0.0026  0.0032  0.0000  0.0000  0.0000  0.0000  0.0000  0.0000 </r>
        <r>  0.0001  0.0025  0.0032  0.0000  0.0000  0.0000  0.0000  0.0000  0.0000 </r>
        <r>  0.0001  0.0026  0.0032  0.0000  0.0000  0.0000  0.0000  0.0000  0.0000 </r>
        <r>  0.0001  0.0026  0.0032  0.0000  0.0000  0.0000  0.0000  0.0000  0.0000 </r>
       </set>
       <set comment="band 48">
        <r>  0.0012  0.0004  0.0010  0.0000  0.0000  0.0925  0.1033  0.0000  0.0280 </r>
        <r>  0.0011  0.0004  0.0009  0.0000  0.0000  0.0876  0.0968  0.0000  0.0263 </r>
        <r>  0.0012  0.0004  0.0010  0.0000  0.0000  0.0927  0.1033  0.0000  0.0280 </r>
        <r>  0.0011  0.0004  0.0009  0.0000  0.0000  0.0875  0.0967  0.0000  0.0263 </r>
        <r>  0.0019  0.0001  0.0068  0.0000  0.0000  0.0000  0.0000  0.0000  0.0000 </r>
        <r>  0.0019  0.0001  0.0068  0.0000  0.0000  0.0000  0.0000  0.0000  0.0000 </r>
        <r>  0.0019  0.0001  0.0068  0.0000  0.0000  0.0000  0.0000  0.0000  0.0000 </r>
        <r>  0.0019  0.0001  0.0068  0.0000  0.0000  0.0000  0.0000  0.0000  0.0000 </r>
        <r>  0.0000  0.0001  0.0008  0.0000  0.0000  0.0000  0.0000  0.0000  0.0000 </r>
        <r>  0.0000  0.0001  0.0009  0.0000  0.0000  0.0000  0.0000  0.0000  0.0000 </r>
        <r>  0.0000  0.0001  0.0008  0.0000  0.0000  0.0000  0.0000  0.0000  0.0000 </r>
        <r>  0.0000  0.0001  0.0009  0.0000  0.0000  0.0000  0.0000  0.0000  0.0000 </r>
       </set>
       <set comment="band 49">
        <r>  0.0114  0.0001  0.0001  0.0000  0.0000  0.1062  0.0097  0.0000  0.0458 </r>
        <r>  0.0119  0.0001  0.0001  0.0000  0.0000  0.1105  0.0098  0.0000  0.0483 </r>
        <r>  0.0114  0.0001  0.0001  0.0000  0.0000  0.1060  0.0097  0.0000  0.0458 </r>
        <r>  0.0119  0.0001  0.0001  0.0000  0.0000  0.1105  0.0098  0.0000  0.0484 </r>
        <r>  0.0003  0.0272  0.0165  0.0000  0.0000  0.0000  0.0000  0.0000  0.0000 </r>
        <r>  0.0003  0.0272  0.0165  0.0000  0.0000  0.0000  0.0000  0.0000  0.0000 </r>
        <r>  0.0003  0.0281  0.0172  0.0000  0.0000  0.0000  0.0000  0.0000  0.0000 </r>
        <r>  0.0003  0.0282  0.0172  0.0000  0.0000  0.0000  0.0000  0.0000  0.0000 </r>
        <r>  0.0024  0.0000  0.0023  0.0000  0.0000  0.0000  0.0000  0.0000  0.0000 </r>
        <r>  0.0023  0.0000  0.0022  0.0000  0.0000  0.0000  0.0000  0.0000  0.0000 </r>
        <r>  0.0024  0.0000  0.0023  0.0000  0.0000  0.0000  0.0000  0.0000  0.0000 </r>
        <r>  0.0023  0.0000  0.0022  0.0000  0.0000  0.0000  0.0000  0.0000  0.0000 </r>
       </set>
       <set comment="band 50">
        <r>  0.0114  0.0000  0.0000  0.0000  0.0000  0.1069  0.0001  0.0000  0.0805 </r>
        <r>  0.0110  0.0000  0.0000  0.0000  0.0000  0.1023  0.0000  0.0000  0.0783 </r>
        <r>  0.0114  0.0000  0.0000  0.0000  0.0000  0.1065  0.0001  0.0000  0.0803 </r>
        <r>  0.0109  0.0000  0.0000  0.0000  0.0000  0.1021  0.0000  0.0000  0.0779 </r>
        <r>  0.0000  0.0196  0.0132  0.0000  0.0000  0.0000  0.0000  0.0000  0.0000 </r>
        <r>  0.0000  0.0197  0.0132  0.0000  0.0000  0.0000  0.0000  0.0000  0.0000 </r>
        <r>  0.0000  0.0188  0.0126  0.0000  0.0000  0.0000  0.0000  0.0000  0.0000 </r>
        <r>  0.0000  0.0187  0.0125  0.0000  0.0000  0.0000  0.0000  0.0000  0.0000 </r>
        <r>  0.0023  0.0003  0.0015  0.0000  0.0000  0.0000  0.0000  0.0000  0.0000 </r>
        <r>  0.0024  0.0003  0.0015  0.0000  0.0000  0.0000  0.0000  0.0000  0.0000 </r>
        <r>  0.0023  0.0003  0.0015  0.0000  0.0000  0.0000  0.0000  0.0000  0.0000 </r>
        <r>  0.0024  0.0003  0.0016  0.0000  0.0000  0.0000  0.0000  0.0000  0.0000 </r>
       </set>
       <set comment="band 51">
        <r>  0.0084  0.0000  0.0006  0.0000  0.0000  0.0457  0.0002  0.0000  0.1087 </r>
        <r>  0.0092  0.0000  0.0006  0.0000  0.0000  0.0497  0.0009  0.0000  0.1217 </r>
        <r>  0.0085  0.0000  0.0005  0.0000  0.0000  0.0469  0.0009  0.0000  0.1131 </r>
        <r>  0.0091  0.0000  0.0007  0.0000  0.0000  0.0490  0.0002  0.0000  0.1183 </r>
        <r>  0.0000  0.0259  0.0170  0.0000  0.0000  0.0000  0.0000  0.0000  0.0000 </r>
        <r>  0.0000  0.0250  0.0184  0.0000  0.0000  0.0000  0.0000  0.0000  0.0000 </r>
        <r>  0.0000  0.0290  0.0181  0.0000  0.0000  0.0000  0.0000  0.0000  0.0000 </r>
        <r>  0.0000  0.0284  0.0193  0.0000  0.0000  0.0000  0.0000  0.0000  0.0000 </r>
        <r>  0.0023  0.0056  0.0000  0.0000  0.0000  0.0000  0.0000  0.0000  0.0000 </r>
        <r>  0.0021  0.0052  0.0000  0.0000  0.0000  0.0000  0.0000  0.0000  0.0000 </r>
        <r>  0.0021  0.0062  0.0000  0.0000  0.0000  0.0000  0.0000  0.0000  0.0000 </r>
        <r>  0.0019  0.0059  0.0000  0.0000  0.0000  0.0000  0.0000  0.0000  0.0000 </r>
       </set>
       <set comment="band 52">
        <r>  0.0000  0.0000  0.0000  0.0065  0.0521  0.0000  0.0000  0.1134  0.0000 </r>
        <r>  0.0000  0.0000  0.0000  0.0066  0.0531  0.0000  0.0000  0.1156  0.0000 </r>
        <r>  0.0000  0.0000  0.0000  0.0065  0.0521  0.0000  0.0000  0.1133  0.0000 </r>
        <r>  0.0000  0.0000  0.0000  0.0066  0.0532  0.0000  0.0000  0.1157  0.0000 </r>
        <r>  0.0000  0.0000  0.0000  0.0185  0.0000  0.0000  0.0000  0.0000  0.0000 </r>
        <r>  0.0000  0.0000  0.0000  0.0185  0.0000  0.0000  0.0000  0.0000  0.0000 </r>
        <r>  0.0000  0.0000  0.0000  0.0189  0.0000  0.0000  0.0000  0.0000  0.0000 </r>
        <r>  0.0000  0.0000  0.0000  0.0189  0.0000  0.0000  0.0000  0.0000  0.0000 </r>
        <r>  0.0000  0.0000  0.0000  0.0418  0.0000  0.0000  0.0000  0.0000  0.0000 </r>
        <r>  0.0000  0.0000  0.0000  0.0410  0.0000  0.0000  0.0000  0.0000  0.0000 </r>
        <r>  0.0000  0.0000  0.0000  0.0418  0.0000  0.0000  0.0000  0.0000  0.0000 </r>
        <r>  0.0000  0.0000  0.0000  0.0410  0.0000  0.0000  0.0000  0.0000  0.0000 </r>
       </set>
       <set comment="band 53">
        <r>  0.0001  0.0002  0.0016  0.0000  0.0000  0.0035  0.1669  0.0000  0.0233 </r>
        <r>  0.0000  0.0002  0.0017  0.0000  0.0000  0.0024  0.1736  0.0000  0.0200 </r>
        <r>  0.0001  0.0002  0.0016  0.0000  0.0000  0.0027  0.1663  0.0000  0.0205 </r>
        <r>  0.0001  0.0002  0.0016  0.0000  0.0000  0.0035  0.1746  0.0000  0.0250 </r>
        <r>  0.0000  0.0033  0.0152  0.0000  0.0000  0.0000  0.0000  0.0000  0.0000 </r>
        <r>  0.0000  0.0038  0.0142  0.0000  0.0000  0.0000  0.0000  0.0000  0.0000 </r>
        <r>  0.0000  0.0031  0.0164  0.0000  0.0000  0.0000  0.0000  0.0000  0.0000 </r>
        <r>  0.0000  0.0042  0.0148  0.0000  0.0000  0.0000  0.0000  0.0000  0.0000 </r>
        <r>  0.0018  0.0125  0.0049  0.0000  0.0000  0.0000  0.0000  0.0000  0.0000 </r>
        <r>  0.0018  0.0118  0.0046  0.0000  0.0000  0.0000  0.0000  0.0000  0.0000 </r>
        <r>  0.0020  0.0117  0.0050  0.0000  0.0000  0.0000  0.0000  0.0000  0.0000 </r>
        <r>  0.0019  0.0113  0.0046  0.0000  0.0000  0.0000  0.0000  0.0000  0.0000 </r>
       </set>
       <set comment="band 54">
        <r>  0.0086  0.0000  0.0010  0.0000  0.0000  0.0335  0.0013  0.0000  0.1146 </r>
        <r>  0.0079  0.0000  0.0009  0.0000  0.0000  0.0301  0.0016  0.0000  0.1062 </r>
        <r>  0.0086  0.0000  0.0010  0.0000  0.0000  0.0331  0.0014  0.0000  0.1143 </r>
        <r>  0.0079  0.0000  0.0009  0.0000  0.0000  0.0301  0.0010  0.0000  0.1045 </r>
        <r>  0.0000  0.0598  0.0081  0.0000  0.0000  0.0000  0.0000  0.0000  0.0000 </r>
        <r>  0.0000  0.0599  0.0082  0.0000  0.0000  0.0000  0.0000  0.0000  0.0000 </r>
        <r>  0.0000  0.0569  0.0069  0.0000  0.0000  0.0000  0.0000  0.0000  0.0000 </r>
        <r>  0.0000  0.0564  0.0074  0.0000  0.0000  0.0000  0.0000  0.0000  0.0000 </r>
        <r>  0.0024  0.0039  0.0005  0.0000  0.0000  0.0000  0.0000  0.0000  0.0000 </r>
        <r>  0.0025  0.0045  0.0005  0.0000  0.0000  0.0000  0.0000  0.0000  0.0000 </r>
        <r>  0.0023  0.0042  0.0004  0.0000  0.0000  0.0000  0.0000  0.0000  0.0000 </r>
        <r>  0.0025  0.0045  0.0004  0.0000  0.0000  0.0000  0.0000  0.0000  0.0000 </r>
       </set>
       <set comment="band 55">
        <r>  0.0000  0.0000  0.0000  0.0068  0.0557  0.0000  0.0000  0.1123  0.0000 </r>
        <r>  0.0000  0.0000  0.0000  0.0067  0.0545  0.0000  0.0000  0.1101  0.0000 </r>
        <r>  0.0000  0.0000  0.0000  0.0068  0.0557  0.0000  0.0000  0.1122  0.0000 </r>
        <r>  0.0000  0.0000  0.0000  0.0067  0.0546  0.0000  0.0000  0.1101  0.0000 </r>
        <r>  0.0000  0.0000  0.0000  0.0192  0.0000  0.0000  0.0000  0.0000  0.0000 </r>
        <r>  0.0000  0.0000  0.0000  0.0192  0.0000  0.0000  0.0000  0.0000  0.0000 </r>
        <r>  0.0000  0.0000  0.0000  0.0189  0.0000  0.0000  0.0000  0.0000  0.0000 </r>
        <r>  0.0000  0.0000  0.0000  0.0189  0.0000  0.0000  0.0000  0.0000  0.0000 </r>
        <r>  0.0000  0.0000  0.0000  0.0426  0.0000  0.0000  0.0000  0.0000  0.0000 </r>
        <r>  0.0000  0.0000  0.0000  0.0435  0.0000  0.0000  0.0000  0.0000  0.0000 </r>
        <r>  0.0000  0.0000  0.0000  0.0426  0.0000  0.0000  0.0000  0.0000  0.0000 </r>
        <r>  0.0000  0.0000  0.0000  0.0435  0.0000  0.0000  0.0000  0.0000  0.0000 </r>
       </set>
       <set comment="band 56">
        <r>  0.0002  0.0011  0.0007  0.0000  0.0000  0.0025  0.1672  0.0000  0.0143 </r>
        <r>  0.0002  0.0011  0.0007  0.0000  0.0000  0.0027  0.1592  0.0000  0.0128 </r>
        <r>  0.0002  0.0011  0.0007  0.0000  0.0000  0.0027  0.1667  0.0000  0.0132 </r>
        <r>  0.0002  0.0011  0.0007  0.0000  0.0000  0.0026  0.1595  0.0000  0.0132 </r>
        <r>  0.0004  0.0023  0.0237  0.0000  0.0000  0.0000  0.0000  0.0000  0.0000 </r>
        <r>  0.0004  0.0026  0.0233  0.0000  0.0000  0.0000  0.0000  0.0000  0.0000 </r>
        <r>  0.0004  0.0022  0.0227  0.0000  0.0000  0.0000  0.0000  0.0000  0.0000 </r>
        <r>  0.0004  0.0024  0.0226  0.0000  0.0000  0.0000  0.0000  0.0000  0.0000 </r>
        <r>  0.0012  0.0120  0.0147  0.0000  0.0000  0.0000  0.0000  0.0000  0.0000 </r>
        <r>  0.0012  0.0126  0.0151  0.0000  0.0000  0.0000  0.0000  0.0000  0.0000 </r>
        <r>  0.0012  0.0119  0.0147  0.0000  0.0000  0.0000  0.0000  0.0000  0.0000 </r>
        <r>  0.0013  0.0124  0.0151  0.0000  0.0000  0.0000  0.0000  0.0000  0.0000 </r>
       </set>
       <set comment="band 57">
        <r>  0.0000  0.0014  0.0040  0.0000  0.0000  0.0749  0.0088  0.0000  0.0693 </r>
        <r>  0.0000  0.0014  0.0041  0.0000  0.0000  0.0765  0.0089  0.0000  0.0708 </r>
        <r>  0.0000  0.0013  0.0040  0.0000  0.0000  0.0747  0.0088  0.0000  0.0693 </r>
        <r>  0.0000  0.0014  0.0041  0.0000  0.0000  0.0766  0.0089  0.0000  0.0709 </r>
        <r>  0.0033  0.0000  0.0291  0.0000  0.0000  0.0000  0.0000  0.0000  0.0000 </r>
        <r>  0.0033  0.0000  0.0292  0.0000  0.0000  0.0000  0.0000  0.0000  0.0000 </r>
        <r>  0.0034  0.0000  0.0297  0.0000  0.0000  0.0000  0.0000  0.0000  0.0000 </r>
        <r>  0.0034  0.0000  0.0297  0.0000  0.0000  0.0000  0.0000  0.0000  0.0000 </r>
        <r>  0.0026  0.0001  0.0321  0.0000  0.0000  0.0000  0.0000  0.0000  0.0000 </r>
        <r>  0.0026  0.0001  0.0312  0.0000  0.0000  0.0000  0.0000  0.0000  0.0000 </r>
        <r>  0.0026  0.0001  0.0321  0.0000  0.0000  0.0000  0.0000  0.0000  0.0000 </r>
        <r>  0.0025  0.0001  0.0312  0.0000  0.0000  0.0000  0.0000  0.0000  0.0000 </r>
       </set>
       <set comment="band 58">
        <r>  0.0000  0.0029  0.0055  0.0000  0.0000  0.0746  0.0025  0.0000  0.0714 </r>
        <r>  0.0000  0.0028  0.0054  0.0000  0.0000  0.0728  0.0024  0.0000  0.0696 </r>
        <r>  0.0000  0.0028  0.0055  0.0000  0.0000  0.0741  0.0024  0.0000  0.0711 </r>
        <r>  0.0000  0.0028  0.0054  0.0000  0.0000  0.0726  0.0023  0.0000  0.0695 </r>
        <r>  0.0028  0.0064  0.0208  0.0000  0.0000  0.0000  0.0000  0.0000  0.0000 </r>
        <r>  0.0028  0.0064  0.0209  0.0000  0.0000  0.0000  0.0000  0.0000  0.0000 </r>
        <r>  0.0027  0.0064  0.0203  0.0000  0.0000  0.0000  0.0000  0.0000  0.0000 </r>
        <r>  0.0027  0.0064  0.0202  0.0000  0.0000  0.0000  0.0000  0.0000  0.0000 </r>
        <r>  0.0009  0.0000  0.0452  0.0000  0.0000  0.0000  0.0000  0.0000  0.0000 </r>
        <r>  0.0009  0.0000  0.0461  0.0000  0.0000  0.0000  0.0000  0.0000  0.0000 </r>
        <r>  0.0009  0.0000  0.0452  0.0000  0.0000  0.0000  0.0000  0.0000  0.0000 </r>
        <r>  0.0009  0.0000  0.0460  0.0000  0.0000  0.0000  0.0000  0.0000  0.0000 </r>
       </set>
       <set comment="band 59">
        <r>  0.0014  0.0052  0.0086  0.0000  0.0000  0.0409  0.0799  0.0000  0.0255 </r>
        <r>  0.0015  0.0054  0.0091  0.0000  0.0000  0.0434  0.0848  0.0000  0.0270 </r>
        <r>  0.0014  0.0052  0.0086  0.0000  0.0000  0.0413  0.0802  0.0000  0.0258 </r>
        <r>  0.0015  0.0054  0.0091  0.0000  0.0000  0.0436  0.0848  0.0000  0.0271 </r>
        <r>  0.0004  0.0014  0.0105  0.0000  0.0000  0.0000  0.0000  0.0000  0.0000 </r>
        <r>  0.0004  0.0014  0.0104  0.0000  0.0000  0.0000  0.0000  0.0000  0.0000 </r>
        <r>  0.0004  0.0017  0.0115  0.0000  0.0000  0.0000  0.0000  0.0000  0.0000 </r>
        <r>  0.0004  0.0016  0.0116  0.0000  0.0000  0.0000  0.0000  0.0000  0.0000 </r>
        <r>  0.0007  0.0432  0.0073  0.0000  0.0000  0.0000  0.0000  0.0000  0.0000 </r>
        <r>  0.0007  0.0408  0.0068  0.0000  0.0000  0.0000  0.0000  0.0000  0.0000 </r>
        <r>  0.0007  0.0432  0.0073  0.0000  0.0000  0.0000  0.0000  0.0000  0.0000 </r>
        <r>  0.0007  0.0409  0.0069  0.0000  0.0000  0.0000  0.0000  0.0000  0.0000 </r>
       </set>
       <set comment="band 60">
        <r>  0.0023  0.0037  0.0076  0.0000  0.0000  0.0391  0.0720  0.0000  0.0193 </r>
        <r>  0.0022  0.0034  0.0071  0.0000  0.0000  0.0367  0.0674  0.0000  0.0180 </r>
        <r>  0.0023  0.0037  0.0076  0.0000  0.0000  0.0392  0.0721  0.0000  0.0194 </r>
        <r>  0.0022  0.0034  0.0071  0.0000  0.0000  0.0366  0.0674  0.0000  0.0179 </r>
        <r>  0.0006  0.0122  0.0293  0.0000  0.0000  0.0000  0.0000  0.0000  0.0000 </r>
        <r>  0.0006  0.0122  0.0292  0.0000  0.0000  0.0000  0.0000  0.0000  0.0000 </r>
        <r>  0.0006  0.0120  0.0282  0.0000  0.0000  0.0000  0.0000  0.0000  0.0000 </r>
        <r>  0.0006  0.0120  0.0282  0.0000  0.0000  0.0000  0.0000  0.0000  0.0000 </r>
        <r>  0.0012  0.0325  0.0081  0.0000  0.0000  0.0000  0.0000  0.0000  0.0000 </r>
        <r>  0.0012  0.0348  0.0085  0.0000  0.0000  0.0000  0.0000  0.0000  0.0000 </r>
        <r>  0.0012  0.0325  0.0081  0.0000  0.0000  0.0000  0.0000  0.0000  0.0000 </r>
        <r>  0.0013  0.0348  0.0086  0.0000  0.0000  0.0000  0.0000  0.0000  0.0000 </r>
       </set>
      </set>
     </set>
    </set>
   </array>
  </projected>
 </calculation>
 <structure name="finalpos" >
  <crystal>
   <varray name="basis" >
    <v>       2.91633100       0.00000000       0.00000000 </v>
    <v>      -0.00000100       4.58096600       0.00014500 </v>
    <v>       0.00000200       0.00030000       9.43439300 </v>
   </varray>
   <i name="volume">    126.03984071 </i>
   <varray name="rec_basis" >
    <v>       0.34289661       0.00000007      -0.00000007 </v>
    <v>       0.00000000       0.21829457      -0.00000694 </v>
    <v>       0.00000000      -0.00000336       0.10599516 </v>
   </varray>
  </crystal>
  <varray name="positions" >
   <v>       0.24999086       0.16456973       0.84833620 </v>
   <v>       0.75002384       0.83537815       0.15167606 </v>
   <v>       0.74999201       0.66470248       0.65160761 </v>
   <v>       0.24998448       0.33537278       0.34834174 </v>
   <v>       0.25001928       0.77086560       0.56563026 </v>
   <v>       0.74999865       0.27082388       0.93434928 </v>
   <v>       0.25002796       0.72913548       0.06566199 </v>
   <v>       0.74999692       0.22912195       0.43437312 </v>
   <v>       0.24999230       0.10504411       0.20976212 </v>
   <v>       0.24998963       0.39498123       0.70978047 </v>
   <v>       0.75000713       0.60505669       0.29027782 </v>
   <v>       0.74997694       0.89494889       0.79020431 </v>
  </varray>
 </structure>
</modeling>
