unknown system                          
           1
     2.916331    0.000000    0.000000
    -0.000001    4.580966    0.000145
     0.000002    0.000300    9.434393
   Mn   O 
   4   8
Direct configuration=     1
   0.25000000  0.02126500  0.86501400
   0.74999900  0.97874100  0.13499200
   0.75000000  0.52131000  0.63496800
   0.25000100  0.47868900  0.36502400
   0.25000000  0.71244700  0.53693000
   0.75000000  0.21232300  0.96305200
   0.25000000  0.78767800  0.03695300
   0.75000000  0.28755100  0.46306600
   0.25000000  0.19132200  0.21631000
   0.25000000  0.30854000  0.71624800
   0.75000000  0.69145800  0.28375200
   0.75000000  0.80867700  0.78369200
Direct configuration=     2
   0.25000103  0.01935633  0.86467467
   0.74999829  0.98063955  0.13532352
   0.75000140  0.51936237  0.63531422
   0.25000147  0.48063233  0.36468517
   0.24999962  0.67924325  0.54154378
   0.74999911  0.17919540  0.95845424
   0.25000038  0.82081968  0.04155657
   0.75000001  0.32076274  0.45845027
   0.25000031  0.18118431  0.21472747
   0.24999999  0.31874573  0.71466944
   0.74999933  0.68124629  0.28533223
   0.74999907  0.81881301  0.78526943
Direct configuration=     3
   0.25000164  0.01823666  0.86447561
   0.74999787  0.98175328  0.13551799
   0.75000223  0.51821984  0.63551732
   0.25000175  0.48177234  0.36448640
   0.24999939  0.65976516  0.54425033
   0.74999858  0.15976199  0.95575709
   0.25000060  0.84026137  0.04425713
   0.75000001  0.34024552  0.45574258
   0.25000049  0.17523730  0.21379913
   0.24999998  0.32473265  0.71374342
   0.74999893  0.67525587  0.28625923
   0.74999852  0.82475903  0.78619479
Direct configuration=     4
   0.25000150  0.01849277  0.86452114
   0.74999797  0.98149853  0.13547351
   0.75000204  0.51848118  0.63547086
   0.25000169  0.48151158  0.36453187
   0.24999944  0.66422050  0.54363124
   0.74999870  0.16420711  0.95637403
   0.25000055  0.83581435  0.04363941
   0.75000001  0.33578910  0.45636193
   0.25000045  0.17659759  0.21401147
   0.24999998  0.32336323  0.71395523
   0.74999902  0.67662610  0.28604719
   0.74999865  0.82339896  0.78598313
Direct configuration=     5
   0.25000034  0.02469324  0.86336443
   0.74999871  0.97535071  0.13665077
   0.74999865  0.52467473  0.63662343
   0.24999887  0.47533209  0.36337001
   0.25000209  0.65597117  0.54407682
   0.74999858  0.15592783  0.95590265
   0.25000031  0.84404507  0.04408688
   0.75000040  0.34401885  0.45592271
   0.25000106  0.18445634  0.21690832
   0.25000161  0.31548068  0.71687610
   0.75000055  0.68451291  0.28312021
   0.74999882  0.81553738  0.78309867
Direct configuration=     6
   0.25000014  0.02573051  0.86317092
   0.74999884  0.97432226  0.13684771
   0.74999809  0.52571084  0.63681624
   0.24999840  0.47429834  0.36317565
   0.25000253  0.65459116  0.54415136
   0.74999856  0.15454281  0.95582379
   0.25000027  0.84542197  0.04416174
   0.75000047  0.34539558  0.45584923
   0.25000116  0.18577101  0.21739293
   0.25000188  0.31416203  0.71736472
   0.75000081  0.68583227  0.28263056
   0.74999885  0.81422223  0.78261614
Direct configuration=     7
   0.24999999  0.02594701  0.86186314
   0.75000051  0.97401609  0.13812063
   0.75000245  0.52598098  0.63811285
   0.25000283  0.47401708  0.36189570
   0.24999894  0.65844787  0.54563870
   0.74999974  0.15846015  0.95435304
   0.24999935  0.84157401  0.04566555
   0.74999845  0.34155529  0.45435314
   0.25000062  0.19180764  0.21923729
   0.24999983  0.30816588  0.71922514
   0.74999861  0.69184384  0.28077638
   0.74999868  0.80818517  0.78075944
Direct configuration=     8
   0.24999992  0.02603050  0.86135885
   0.75000116  0.97389802  0.13861147
   0.75000413  0.52608515  0.63861283
   0.25000453  0.47390863  0.36140214
   0.24999756  0.65993504  0.54621223
   0.75000019  0.15997070  0.95378591
   0.24999900  0.84009021  0.04624542
   0.74999768  0.34007445  0.45377624
   0.25000041  0.19413540  0.21994849
   0.24999904  0.30585373  0.71994252
   0.74999776  0.69416193  0.28006140
   0.74999861  0.80585724  0.78004349
Direct configuration=     9
   0.24999933  0.02766981  0.86133255
   0.75000074  0.97227961  0.13864628
   0.74999833  0.52771606  0.63864608
   0.25000275  0.47227164  0.36136578
   0.24999885  0.66089671  0.54844027
   0.75000113  0.16092715  0.95155679
   0.24999977  0.83911323  0.04846357
   0.74999968  0.33911589  0.45154989
   0.25000092  0.19823758  0.22024147
   0.24999993  0.30177447  0.72024077
   0.74999889  0.69823771  0.27976423
   0.74999970  0.80176114  0.77975332
Direct configuration=    10
   0.24999755  0.03258773  0.86125368
   0.74999947  0.96742436  0.13875072
   0.74998094  0.53260880  0.63874582
   0.24999738  0.46736068  0.36125671
   0.25000270  0.66378171  0.55512438
   0.75000393  0.16379648  0.94486943
   0.25000207  0.83618229  0.05511801
   0.75000569  0.33624022  0.44487083
   0.25000246  0.21054413  0.22112040
   0.25000258  0.28953670  0.72113551
   0.75000225  0.71046508  0.27887271
   0.75000296  0.78947281  0.77888280
Direct configuration=    11
   0.24999399  0.04242357  0.86109593
   0.74999694  0.95771386  0.13895959
   0.74994616  0.54239429  0.63894532
   0.24998666  0.45753876  0.36103858
   0.25001041  0.66955173  0.56849259
   0.75000954  0.16953516  0.93149471
   0.25000668  0.83032042  0.06842688
   0.75001771  0.33048887  0.43151270
   0.25000554  0.23515723  0.22287828
   0.25000790  0.26506115  0.72292499
   0.75000898  0.73491981  0.27708967
   0.75000949  0.76489616  0.77714177
Direct configuration=    12
   0.24999671  0.03490860  0.86121645
   0.74999887  0.96513306  0.13880000
   0.74997273  0.53491779  0.63879290
   0.24999485  0.46504309  0.36120524
   0.25000452  0.66514321  0.55827875
   0.75000525  0.16515058  0.94171352
   0.25000316  0.83479912  0.05825838
   0.75000853  0.33488313  0.44171883
   0.25000319  0.21635186  0.22153519
   0.25000384  0.28376143  0.72155776
   0.75000384  0.71623544  0.27845198
   0.75000450  0.78367368  0.77847199
Direct configuration=    13
   0.24999610  0.03658954  0.86118949
   0.74999844  0.96347354  0.13883570
   0.74996679  0.53659013  0.63882699
   0.24999302  0.46336453  0.36116796
   0.25000584  0.66612931  0.56056338
   0.75000621  0.16613132  0.93942778
   0.25000395  0.83379733  0.06053287
   0.75001058  0.33390022  0.43943593
   0.25000371  0.22055823  0.22183561
   0.25000475  0.27957856  0.72186358
   0.75000499  0.72041475  0.27814726
   0.75000562  0.77947354  0.77817445
Direct configuration=    14
   0.24999646  0.03718044  0.86102603
   0.74999854  0.96288478  0.13900067
   0.74996631  0.53718000  0.63899259
   0.24999298  0.46277499  0.36100173
   0.25000528  0.66639843  0.56121891
   0.75000615  0.16639906  0.93877257
   0.25000401  0.83352672  0.06118629
   0.75001066  0.33363104  0.43878128
   0.25000382  0.22167950  0.22177560
   0.25000489  0.27846119  0.72180553
   0.75000521  0.72153232  0.27820522
   0.75000569  0.77835253  0.77823459
Direct configuration=    15
   0.24999752  0.03895314  0.86053563
   0.74999884  0.96111850  0.13949561
   0.74996485  0.53894961  0.63948939
   0.24999286  0.46100637  0.36050302
   0.25000362  0.66720580  0.56318550
   0.75000597  0.16720227  0.93680691
   0.25000420  0.83271490  0.06314656
   0.75001092  0.33282347  0.43681734
   0.25000412  0.22504331  0.22159555
   0.25000533  0.27510906  0.72163138
   0.75000585  0.72488505  0.27837910
   0.75000590  0.77498953  0.77841500
Direct configuration=    16
   0.24999856  0.03921763  0.86020635
   0.74999909  0.96084814  0.13982356
   0.74996647  0.53921604  0.63981926
   0.24999379  0.46074374  0.36017350
   0.25000192  0.66734126  0.56336425
   0.75000545  0.16733781  0.93662941
   0.25000398  0.83258406  0.06332617
   0.75001008  0.33268640  0.43663948
   0.25000432  0.22521834  0.22129471
   0.25000552  0.27492992  0.72133196
   0.75000555  0.72506608  0.27867781
   0.75000528  0.77481159  0.77871455
Direct configuration=    17
   0.25000168  0.04001113  0.85921850
   0.74999985  0.96003708  0.14080740
   0.74997132  0.54001531  0.64080885
   0.24999656  0.45995583  0.35918495
   0.24999680  0.66774763  0.56390050
   0.75000387  0.16774444  0.93609690
   0.25000331  0.83219153  0.06386497
   0.75000757  0.33227517  0.43610589
   0.25000492  0.22574343  0.22039220
   0.25000608  0.27439250  0.72043370
   0.75000464  0.72560918  0.27957393
   0.75000340  0.77427778  0.77961321
Direct configuration=    18
   0.25000792  0.04159811  0.85724281
   0.75000138  0.95841494  0.14277509
   0.74998102  0.54161384  0.64278804
   0.25000210  0.45838002  0.35720785
   0.24998656  0.66856038  0.56497301
   0.75000072  0.16855771  0.93503189
   0.25000197  0.83140647  0.06494258
   0.75000255  0.33145271  0.43503871
   0.25000611  0.22679362  0.21858717
   0.25000719  0.27331767  0.71863717
   0.75000283  0.72669537  0.28136616
   0.74999965  0.77321015  0.78141051
Direct configuration=    19
   0.25002040  0.04477209  0.85329144
   0.75000442  0.95517067  0.14671047
   0.75000044  0.54481092  0.64674642
   0.25001320  0.45522840  0.35325364
   0.24996608  0.67018588  0.56711803
   0.74999441  0.17018423  0.93290186
   0.24999928  0.82983635  0.06709780
   0.74999251  0.32980779  0.43290434
   0.25000850  0.22889399  0.21497712
   0.25000943  0.27116801  0.71504412
   0.74999921  0.72886777  0.28495064
   0.74999214  0.77107490  0.78500513
Direct configuration=    20
   0.25004535  0.05112003  0.84538868
   0.75001051  0.94868212  0.15458123
   0.75003926  0.55120508  0.65466317
   0.25003538  0.44892517  0.34534523
   0.24992512  0.67343688  0.57140807
   0.74998180  0.17343728  0.92864179
   0.24999392  0.82669610  0.07140825
   0.74997241  0.32651796  0.42863561
   0.25001327  0.23309474  0.20775701
   0.25001389  0.26686867  0.70785801
   0.74999196  0.73321256  0.29211959
   0.74997714  0.76680441  0.79219435
Direct configuration=    21
   0.25003293  0.05005849  0.84432202
   0.75000786  0.94980549  0.15564368
   0.75001951  0.55012192  0.65572395
   0.25002373  0.44995041  0.34426480
   0.24994221  0.67540981  0.57283759
   0.74999325  0.17539904  0.92721374
   0.24999682  0.82470345  0.07282055
   0.74998119  0.32456335  0.42720018
   0.25001555  0.23116291  0.20472451
   0.25001689  0.26882271  0.70480667
   0.74999212  0.73121640  0.29518864
   0.74997792  0.76878701  0.79525467
Direct configuration=    22
   0.25001999  0.04895256  0.84321075
   0.75000510  0.95097583  0.15675056
   0.74999895  0.54899346  0.65682909
   0.25001159  0.45101852  0.34313920
   0.24996003  0.67746524  0.57432690
   0.75000519  0.17744285  0.92572597
   0.24999984  0.82262746  0.07429191
   0.74999034  0.32252700  0.42570473
   0.25001792  0.22915030  0.20156518
   0.25002001  0.27085847  0.70162771
   0.74999230  0.72913676  0.29838603
   0.74997874  0.77085253  0.79844298
Direct configuration=    23
   0.25001400  0.04933503  0.84322284
   0.75000360  0.95067102  0.15677571
   0.74998863  0.54937721  0.65681801
   0.25000550  0.45069076  0.34313155
   0.24997172  0.67844999  0.57471625
   0.75000894  0.17843063  0.92533607
   0.25000183  0.82157694  0.07465189
   0.74999536  0.32150651  0.42532974
   0.25001717  0.22889799  0.20163822
   0.25001863  0.27110373  0.70169593
   0.74999313  0.72886527  0.29831424
   0.74998149  0.77109593  0.79837055
Direct configuration=    24
   0.24999603  0.05048246  0.84325910
   0.74999908  0.94975656  0.15685117
   0.74995769  0.55052844  0.65678477
   0.24998721  0.44970747  0.34310862
   0.25000678  0.68140424  0.57588432
   0.75002019  0.18139398  0.92416637
   0.25000779  0.81842537  0.07573182
   0.75001041  0.31844502  0.42420478
   0.25001493  0.22814105  0.20185735
   0.25001451  0.27183949  0.70190059
   0.74999563  0.72805078  0.29809887
   0.74998975  0.77182612  0.79815325
Direct configuration=    25
   0.24996008  0.05277730  0.84333163
   0.74999006  0.94792765  0.15700208
   0.74989581  0.55283090  0.65671830
   0.24995063  0.44774091  0.34306274
   0.25007692  0.68731273  0.57822044
   0.75004269  0.18732069  0.92182698
   0.25001972  0.81212224  0.07789167
   0.75004052  0.31232204  0.42195486
   0.25001043  0.22662718  0.20229560
   0.25000625  0.27331103  0.70230992
   0.75000064  0.72642182  0.29766813
   0.75000626  0.77328651  0.79771865
Direct configuration=    26
   0.24988819  0.05736698  0.84347669
   0.74997200  0.94426984  0.15730391
   0.74977205  0.55743583  0.65658536
   0.24987748  0.44380777  0.34297099
   0.25021718  0.69912973  0.58289270
   0.75008768  0.19917410  0.91714820
   0.25004357  0.79951597  0.08221139
   0.75010073  0.30007608  0.41745501
   0.25000145  0.22359945  0.20317210
   0.24998974  0.27625409  0.70312858
   0.75001066  0.72316389  0.29680664
   0.75003928  0.77620729  0.79684946
Direct configuration=    27
   0.24993707  0.05424653  0.84337807
   0.74998428  0.94675673  0.15709870
   0.74985619  0.55430501  0.65667574
   0.24992721  0.44648185  0.34303337
   0.25012182  0.69109554  0.57971610
   0.75005709  0.19111515  0.92032923
   0.25002735  0.80808678  0.07927448
   0.75005979  0.30840191  0.42051438
   0.25000756  0.22565796  0.20257618
   0.25000096  0.27425315  0.70257198
   0.75000385  0.72537891  0.29739235
   0.75001683  0.77422150  0.79744041
Direct configuration=    28
   0.24994636  0.05517204  0.84350498
   0.74998811  0.94569652  0.15692199
   0.74987840  0.55521496  0.65655230
   0.24993705  0.44546944  0.34319752
   0.25010516  0.69202057  0.58011028
   0.75004774  0.19203418  0.91992806
   0.25002487  0.80728878  0.07971902
   0.75005142  0.30756779  0.42009155
   0.25000487  0.22533404  0.20245913
   0.24999693  0.27457084  0.70246075
   0.75000370  0.72508547  0.29750383
   0.75001539  0.77454638  0.79755158
Direct configuration=    29
   0.24997424  0.05794856  0.84388574
   0.74999960  0.94251587  0.15639186
   0.74994504  0.55794480  0.65618197
   0.24996657  0.44243222  0.34368996
   0.25005519  0.69479565  0.58129280
   0.75001969  0.19479126  0.91872457
   0.25001745  0.80489477  0.08105264
   0.75002630  0.30506542  0.41882304
   0.24999679  0.22436227  0.20210798
   0.24998484  0.27552394  0.70212706
   0.75000324  0.72420518  0.29783828
   0.75001106  0.77552104  0.79788510
Direct configuration=    30
   0.25002998  0.06350161  0.84464725
   0.75002258  0.93615458  0.15533160
   0.75007831  0.56340449  0.65544131
   0.25002561  0.43635779  0.34467484
   0.24995525  0.70034582  0.58365784
   0.74996360  0.20030542  0.91631758
   0.25000259  0.80010677  0.08371987
   0.74997605  0.30006069  0.41628604
   0.24998064  0.22241875  0.20140568
   0.24996065  0.27743013  0.70145967
   0.75000232  0.72244460  0.29850717
   0.75000241  0.77747036  0.79855215
Direct configuration=    31
   0.24999640  0.06015691  0.84418858
   0.75000874  0.93998610  0.15597021
   0.74999804  0.56011602  0.65588742
   0.24999005  0.44001653  0.34408163
   0.25001544  0.69700285  0.58223333
   0.74999739  0.19698414  0.91776735
   0.25001154  0.80299067  0.08211335
   0.75000632  0.30307513  0.41781412
   0.24999037  0.22358937  0.20182869
   0.24997522  0.27628200  0.70186165
   0.75000287  0.72350503  0.29810429
   0.75000762  0.77629625  0.79815037
Direct configuration=    32
   0.25000224  0.06148497  0.84404696
   0.75001125  0.93851505  0.15602658
   0.75001727  0.56144551  0.65601907
   0.25000085  0.43856159  0.34398118
   0.24999870  0.69752447  0.58208713
   0.74999087  0.19751548  0.91791582
   0.25000813  0.80259452  0.08202428
   0.74999659  0.30262845  0.41793584
   0.24998912  0.22315462  0.20130773
   0.24997371  0.27673272  0.70133239
   0.75000365  0.72309989  0.29863962
   0.75000761  0.77674373  0.79868440
Direct configuration=    33
   0.25001975  0.06546915  0.84362211
   0.75001879  0.93410191  0.15619568
   0.75007497  0.56543398  0.65641402
   0.25003323  0.43419676  0.34367985
   0.24994845  0.69908932  0.58164851
   0.74997133  0.19910951  0.91836122
   0.24999792  0.80140608  0.08175707
   0.74996742  0.30128841  0.41830098
   0.24998539  0.22185038  0.19974485
   0.24996918  0.27808490  0.69974461
   0.75000599  0.72188445  0.30024562
   0.75000757  0.77808615  0.80028650
Direct configuration=    34
   0.25005478  0.07343751  0.84277241
   0.75003388  0.92527563  0.15653387
   0.75019037  0.57341092  0.65720391
   0.25009799  0.42546710  0.34307718
   0.24984797  0.70221902  0.58077127
   0.74993224  0.20229756  0.91925202
   0.24997748  0.79902919  0.08122266
   0.74990907  0.29860834  0.41903126
   0.24997792  0.21924190  0.19661908
   0.24996013  0.28078925  0.69656904
   0.75001067  0.71945358  0.30345763
   0.75000750  0.78077099  0.80349068
Direct configuration=    35
   0.25003157  0.06815848  0.84333533
   0.75002388  0.93112303  0.15630982
   0.75011392  0.56812621  0.65668061
   0.25005509  0.43125048  0.34347645
   0.24991454  0.70014560  0.58135244
   0.74995814  0.20018548  0.91866186
   0.24999102  0.80060387  0.08157671
   0.74994772  0.30038389  0.41854745
   0.24998287  0.22097002  0.19868990
   0.24996613  0.27899762  0.69867285
   0.75000757  0.72106403  0.30132968
   0.75000755  0.77899229  0.80136791
Direct configuration=    36
   0.24999557  0.06886433  0.84342110
   0.75000678  0.93082957  0.15639236
   0.75001769  0.56884560  0.65657926
   0.25000442  0.43082981  0.34353160
   0.24999689  0.70158993  0.58105242
   0.74998892  0.20162015  0.91896995
   0.25000348  0.79873125  0.08112936
   0.74999302  0.29866663  0.41889942
   0.24998815  0.21943796  0.19824557
   0.24997449  0.28056339  0.69823304
   0.75001189  0.71947712  0.30174376
   0.75001869  0.78054527  0.80180317
Direct configuration=    37
   0.24995817  0.06959737  0.84351017
   0.74998903  0.93052482  0.15647808
   0.74991776  0.56959271  0.65647400
   0.24995181  0.43039293  0.34358888
   0.25008242  0.70308988  0.58074085
   0.75002089  0.20311007  0.91928990
   0.25001642  0.79678650  0.08066479
   0.75004005  0.29688323  0.41926494
   0.24999363  0.21784690  0.19778413
   0.24998318  0.28218946  0.69777629
   0.75001639  0.71782910  0.30217378
   0.75003027  0.78215806  0.80225519
Direct configuration=    38
   0.24996058  0.07092180  0.84349050
   0.74998974  0.92943140  0.15662489
   0.74991971  0.57097492  0.65651608
   0.24995377  0.42926378  0.34348054
   0.25007866  0.70467475  0.58051051
   0.75002007  0.20469177  0.91951718
   0.25001446  0.79493984  0.08034891
   0.75003982  0.29508157  0.41955245
   0.24999351  0.21646806  0.19808983
   0.24998436  0.28357780  0.69808051
   0.75001632  0.71643516  0.30186092
   0.75002898  0.78354017  0.80192867
Direct configuration=    39
   0.24996782  0.07489510  0.84343149
   0.74999190  0.92615114  0.15706531
   0.74992559  0.57512157  0.65664231
   0.24995965  0.42587632  0.34315552
   0.25006739  0.70942936  0.57981951
   0.75001761  0.20943688  0.92019904
   0.25000858  0.78939986  0.07940128
   0.75003912  0.28967657  0.42041499
   0.24999316  0.21233153  0.19900691
   0.24998792  0.28774283  0.69899318
   0.75001613  0.71225334  0.30092235
   0.75002513  0.78768649  0.80094911
Direct configuration=    40
   0.24997131  0.07680624  0.84340310
   0.74999294  0.92457336  0.15727715
   0.74992841  0.57711609  0.65670302
   0.24996249  0.42424697  0.34299919
   0.25006197  0.71171630  0.57948714
   0.75001642  0.21171926  0.92052701
   0.25000575  0.78673515  0.07894547
   0.75003878  0.28707679  0.42082987
   0.24999299  0.21034189  0.19944803
   0.24998963  0.28974620  0.69943216
   0.75001604  0.71024191  0.30047090
   0.75002327  0.78968086  0.80047795
Direct configuration=    41
   0.24997727  0.07772721  0.84350488
   0.74999473  0.92358130  0.15714501
   0.74994275  0.57803302  0.65660148
   0.24997057  0.42327701  0.34310929
   0.25004844  0.71250221  0.57939754
   0.75001232  0.21249788  0.92061125
   0.25000350  0.78601474  0.07889049
   0.75003266  0.28632996  0.42090025
   0.24999226  0.20926489  0.19961856
   0.24998935  0.29082012  0.69961645
   0.75001541  0.70917515  0.30030661
   0.75002074  0.79077752  0.80029921
Direct configuration=    42
   0.24999515  0.08049010  0.84381021
   0.75000009  0.92060513  0.15674856
   0.74998578  0.58078378  0.65629686
   0.24999482  0.42036713  0.34343960
   0.25000787  0.71485995  0.57912872
   0.75000001  0.21483375  0.92086396
   0.24999676  0.78385349  0.07872554
   0.75001430  0.28408950  0.42111138
   0.24999009  0.20603388  0.20013014
   0.24998850  0.29404188  0.70016930
   0.75001350  0.70597487  0.29981374
   0.75001313  0.79406753  0.79976299
Direct configuration=    43
   0.25003092  0.08601588  0.84442086
   0.75001082  0.91465279  0.15595567
   0.75007183  0.58628531  0.65568760
   0.25004333  0.41454739  0.34410023
   0.24992673  0.71957543  0.57859108
   0.74997539  0.21950549  0.92136939
   0.24998327  0.77953100  0.07839565
   0.74997757  0.27960857  0.42153366
   0.24998573  0.19957188  0.20115331
   0.24998681  0.30048541  0.70127500
   0.75000968  0.69957432  0.29882801
   0.74999792  0.80064753  0.79869055
Direct configuration=    44
   0.25010246  0.09706744  0.84564218
   0.75003229  0.90274810  0.15436988
   0.75024392  0.59728837  0.65446910
   0.25014033  0.40290789  0.34542148
   0.24976445  0.72900639  0.57751580
   0.74992615  0.22884897  0.92238025
   0.24995630  0.77088602  0.07773586
   0.74990412  0.27064672  0.42237821
   0.24997703  0.18664787  0.20319966
   0.24998342  0.31337247  0.70348639
   0.75000205  0.68677321  0.29685653
   0.74996750  0.81380755  0.79654567
Direct configuration=    45
   0.25024553  0.11917057  0.84808481
   0.75007522  0.87893873  0.15119831
   0.75058811  0.61929448  0.65203208
   0.25033435  0.37962890  0.34806399
   0.24943989  0.74786831  0.57536525
   0.74982767  0.24753593  0.92440196
   0.24990235  0.75359607  0.07641628
   0.74975721  0.25272300  0.42406730
   0.24995962  0.16079986  0.20729234
   0.24997663  0.33914659  0.70790919
   0.74998678  0.66117099  0.29291357
   0.74990666  0.84012758  0.79225592
Direct configuration=    46
   0.25017365  0.10806542  0.84685757
   0.75005365  0.89090114  0.15279178
   0.75041518  0.60823808  0.65325650
   0.25023687  0.39132483  0.34673633
   0.24960296  0.73839163  0.57644574
   0.74987714  0.23814715  0.92338620
   0.24992946  0.76228296  0.07707927
   0.74983102  0.26172831  0.42321866
   0.24996836  0.17378653  0.20523608
   0.24998004  0.32619705  0.70568707
   0.74999445  0.67403416  0.29489461
   0.74993723  0.82690376  0.79441119
Direct configuration=    47
   0.25013314  0.11182824  0.84693533
   0.75003467  0.88711337  0.15275439
   0.75031166  0.61201337  0.65314248
   0.25018539  0.38750589  0.34683915
   0.24969227  0.74065625  0.57584149
   0.74991474  0.24045368  0.92402448
   0.24994435  0.75995213  0.07644943
   0.74987935  0.25945869  0.42380124
   0.24997479  0.16935386  0.20544544
   0.24998456  0.33071381  0.70589889
   0.74999612  0.66956555  0.29467259
   0.74994895  0.83138615  0.79419611
Direct configuration=    48
   0.25001162  0.12311669  0.84716858
   0.74997773  0.87575009  0.15264220
   0.75000110  0.62333926  0.65280041
   0.25003097  0.37604909  0.34714763
   0.24996022  0.74745012  0.57402873
   0.75002754  0.24737328  0.92593930
   0.24998904  0.75295965  0.07455990
   0.75002436  0.25264984  0.42554899
   0.24999407  0.15605585  0.20607354
   0.24999810  0.34426410  0.70653436
   0.75000114  0.65615970  0.29400652
   0.74998413  0.84483332  0.79355085
Direct configuration=    49
   0.24976858  0.14569359  0.84763510
   0.74986386  0.85302352  0.15241782
   0.74937998  0.64599105  0.65211627
   0.24972213  0.35313547  0.34776458
   0.25049612  0.76103786  0.57040321
   0.75025312  0.26121248  0.92976895
   0.25007842  0.73897469  0.07078084
   0.75031436  0.23903215  0.42904447
   0.25003263  0.12945984  0.20732972
   0.25002517  0.37136468  0.70780530
   0.75001117  0.62934802  0.29267439
   0.75005447  0.87172766  0.79226034
Direct configuration=    50
   0.24928249  0.19084739  0.84856814
   0.74963611  0.80757038  0.15196905
   0.74813773  0.69129461  0.65074799
   0.24910444  0.30730824  0.34899848
   0.25156791  0.78821334  0.56315219
   0.75070429  0.28889088  0.93742825
   0.25025717  0.71100476  0.06322272
   0.75089438  0.21179675  0.43603545
   0.25010974  0.07626782  0.20984210
   0.25007933  0.42556583  0.71034718
   0.75003124  0.57572464  0.29001013
   0.75019517  0.92551635  0.78967933
Direct configuration=    51
   0.24961694  0.15977971  0.84792617
   0.74979281  0.83884401  0.15227782
   0.74899245  0.66012389  0.65168942
   0.24952944  0.33883926  0.34814951
   0.25083047  0.76951549  0.56814119
   0.75039387  0.26984700  0.93215834
   0.25013418  0.73024922  0.06842301
   0.75049530  0.23053582  0.43122537
   0.25005668  0.11286612  0.20811348
   0.25004207  0.38827321  0.70859826
   0.75001743  0.61261973  0.29184325
   0.75009837  0.88850752  0.79145517
Direct configuration=    52
   0.24956876  0.16425532  0.84801865
   0.74977023  0.83433873  0.15223334
   0.74886931  0.66461435  0.65155380
   0.24946821  0.33429690  0.34827181
   0.25093671  0.77220911  0.56742248
   0.75043859  0.27259047  0.93291752
   0.25015190  0.72747687  0.06767386
   0.75055280  0.22783627  0.43191831
   0.25006433  0.10759377  0.20836250
   0.25004744  0.39364558  0.70885021
   0.75001942  0.60730462  0.29157917
   0.75011231  0.89383901  0.79119935
Direct configuration=    53
   0.25022033  0.16619040  0.84777597
   0.75007381  0.83427794  0.15225117
   0.75040729  0.66637969  0.65226788
   0.25026960  0.33428501  0.34769310
   0.24961789  0.77361994  0.56648916
   0.74990975  0.27360617  0.93346462
   0.24991657  0.72566644  0.06700655
   0.74983822  0.22553428  0.43306002
   0.24997842  0.10527973  0.20857526
   0.24989449  0.39486957  0.70908172
   0.74994866  0.60519708  0.29145699
   0.74992497  0.89509476  0.79087857
Direct configuration=    54
   0.25005703  0.16570543  0.84783679
   0.74999773  0.83429318  0.15224670
   0.75002184  0.66593726  0.65208892
   0.25006875  0.33428799  0.34783814
   0.24994841  0.77326635  0.56672307
   0.75004229  0.27335161  0.93332750
   0.24997555  0.72612017  0.06717379
   0.75001731  0.22611121  0.43277388
   0.24999995  0.10585968  0.20852194
   0.24993282  0.39456281  0.70902370
   0.74996640  0.60572528  0.29148761
   0.74997192  0.89478004  0.79095896
Direct configuration=    55
   0.25004888  0.16551052  0.84808449
   0.74999353  0.83445404  0.15217879
   0.75001539  0.66555508  0.65193331
   0.25005263  0.33450621  0.34781219
   0.24993481  0.77333576  0.56658124
   0.75002448  0.27328387  0.93336478
   0.24997954  0.72604380  0.06701911
   0.75001583  0.22590978  0.43303639
   0.25000974  0.10579318  0.20865280
   0.24995527  0.39484552  0.70896111
   0.74998033  0.60574023  0.29136039
   0.74998956  0.89502300  0.79101640
Direct configuration=    56
   0.25004965  0.16552889  0.84806115
   0.74999393  0.83443888  0.15218519
   0.75001600  0.66559109  0.65194797
   0.25005415  0.33448565  0.34781463
   0.24993610  0.77332922  0.56659461
   0.75002616  0.27329026  0.93336127
   0.24997916  0.72605100  0.06703369
   0.75001597  0.22592876  0.43301166
   0.25000882  0.10579944  0.20864047
   0.24995315  0.39481888  0.70896701
   0.74997902  0.60573882  0.29137238
   0.74998790  0.89500011  0.79101099
Direct configuration=    57
   0.25001707  0.16556545  0.84812427
   0.74998252  0.83455592  0.15207329
   0.74995594  0.66555435  0.65190366
   0.25000983  0.33454684  0.34791281
   0.24997649  0.77321728  0.56645677
   0.75003015  0.27316704  0.93348749
   0.24998978  0.72614324  0.06688637
   0.75003514  0.22603464  0.43316553
   0.25001929  0.10580845  0.20876693
   0.24997929  0.39478528  0.70902881
   0.74999390  0.60576356  0.29125671
   0.75001060  0.89485897  0.79093835
Direct configuration=    58
   0.24992999  0.16566318  0.84829298
   0.74995203  0.83486877  0.15177421
   0.74979543  0.66545613  0.65178524
   0.24989136  0.33471040  0.34817523
   0.25008445  0.77291807  0.56608832
   0.75004081  0.27283769  0.93382490
   0.25001815  0.72638980  0.06649260
   0.75008639  0.22631765  0.43357681
   0.25004727  0.10583252  0.20910496
   0.25004915  0.39469545  0.70919401
   0.75003369  0.60582967  0.29094755
   0.75007128  0.89448169  0.79074418
Direct configuration=    59
   0.24994851  0.16559297  0.84834109
   0.74996982  0.83486373  0.15172434
   0.74984989  0.66537249  0.65170925
   0.24992261  0.33470765  0.34826308
   0.25004221  0.77273746  0.56601702
   0.75001840  0.27267811  0.93391571
   0.25001088  0.72663320  0.06638033
   0.75005174  0.22658667  0.43366721
   0.25004108  0.10578982  0.20916866
   0.25004768  0.39473803  0.70923941
   0.75003292  0.60582384  0.29086714
   0.75006428  0.89447703  0.79070777
Direct configuration=    60
   0.25000407  0.16538234  0.84848543
   0.75002318  0.83484863  0.15157472
   0.75001326  0.66512158  0.65148129
   0.25001634  0.33469939  0.34852661
   0.24991548  0.77219562  0.56580312
   0.74995117  0.27219938  0.93418814
   0.24998908  0.72736342  0.06604350
   0.74994778  0.22739374  0.43393839
   0.25002249  0.10566173  0.20935974
   0.25004327  0.39486579  0.70937559
   0.75003061  0.60580633  0.29062591
   0.75004327  0.89446306  0.79059855
Direct configuration=    61
   0.25000430  0.16528198  0.84844682
   0.75002547  0.83489936  0.15160000
   0.75002173  0.66506231  0.65151947
   0.25001591  0.33478752  0.34848484
   0.24992772  0.77197472  0.56574044
   0.74996000  0.27194838  0.93423010
   0.24999897  0.72772163  0.06596028
   0.74995116  0.22773382  0.43403615
   0.25001387  0.10552253  0.20939785
   0.25002976  0.39487736  0.70945243
   0.75002480  0.60565611  0.29059732
   0.75002631  0.89453530  0.79053529
Direct configuration=    62
   0.25000501  0.16498088  0.84833099
   0.75003234  0.83505155  0.15167585
   0.75004714  0.66488453  0.65163400
   0.25001461  0.33505189  0.34835952
   0.24996446  0.77131199  0.56555240
   0.74998649  0.27119537  0.93435599