unknown system                          
   1.00000000000000     
     0.000004    2.028818    2.028818
     2.028818    0.000004    2.028818
     2.028818    2.028818    0.000004
   Li   F 
     1     1
Direct
  0.000000  0.000000  1.000000
  0.500000  0.500000  0.500000
 
   48   48   48
 0.15783416675E+04 0.79938564091E+03 0.41350021461E+03 0.21807121251E+03 0.11704748022E+03
 0.63827549475E+02 0.35354338824E+02 0.19929135646E+02 0.11477521071E+02 0.67943277995E+01
 0.41740566963E+01 0.27028069023E+01 0.18634508915E+01 0.14394707598E+01 0.12201528145E+01
 0.11169821216E+01 0.10802849911E+01 0.10813103832E+01 0.11022256941E+01 0.11312267772E+01
 0.11604762413E+01 0.11852511049E+01 0.12033010329E+01 0.12140259748E+01 0.12175560588E+01
 0.12140259612E+01 0.12033010066E+01 0.11852510672E+01 0.11604761934E+01 0.11312267188E+01
 0.11022256230E+01 0.10813102942E+01 0.10802848746E+01 0.11169819613E+01 0.12201525813E+01
 0.14394704009E+01 0.18634503114E+01 0.27028058816E+01 0.41740549456E+01 0.67943247378E+01
 0.11477515618E+02 0.19929125767E+02 0.35354320684E+02 0.63827515751E+02 0.11704741669E+03
 0.21807109082E+03 0.41349997685E+03 0.79938516711E+03 0.79938571259E+03 0.49242918547E+03
 0.27296894113E+03 0.14931443811E+03 0.82059112796E+02 0.45548579716E+02 0.25623542536E+02
 0.14670316185E+02 0.85959723356E+01 0.51963195982E+01 0.32821291002E+01 0.22078334312E+01
 0.16070923079E+01 0.13068313975E+01 0.11575661455E+01 0.10945521516E+01 0.10809966701E+01
 0.10948322391E+01 0.11218015361E+01 0.11523221352E+01 0.11802363865E+01 0.12021673413E+01
 0.12168089854E+01 0.12240324739E+01 0.12240324308E+01 0.12168088667E+01 0.12021671777E+01
 0.11802362234E+01 0.11523220255E+01 0.11218015303E+01 0.10948323758E+01 0.10809969708E+01
 0.10945526218E+01 0.11575667874E+01 0.13068322396E+01 0.16070934629E+01 0.22078352745E+01
 0.32821322422E+01 0.51963253596E+01 0.85959832237E+01 0.14670336784E+02 0.25623581040E+02
 0.45548650766E+02 0.82059243012E+02 0.14931467631E+03 0.27296937293E+03 0.49242991512E+03
 0.79938640966E+03 0.41350025141E+03 0.27296895033E+03 0.16303706813E+03 0.93988736702E+02
 0.53641393566E+02 0.30669156402E+02 0.17703813489E+02 0.10391603232E+02 0.62525144006E+01
 0.38998687406E+01 0.25646634577E+01 0.17996890739E+01 0.14122489209E+01 0.12129229708E+01
 0.11213609705E+01 0.10919866652E+01 0.10980332806E+01 0.11226225131E+01 0.11544228708E+01
 0.11858426906E+01 0.12122827665E+01 0.12315372110E+01 0.12430006614E+01 0.12467806499E+01
 0.12430005029E+01 0.12315369335E+01 0.12122824431E+01 0.11858424166E+01 0.11544227476E+01
 0.11226226308E+01 0.10980337033E+01 0.10919874276E+01 0.11213620932E+01 0.12129245041E+01
 0.14122510342E+01 0.17996922170E+01 0.25646688563E+01 0.38998782640E+01 0.62525318487E+01
 0.10391635533E+02 0.17703872718E+02 0.30669263250E+02 0.53641582717E+02 0.93989064292E+02
 0.16303761240E+03 0.27296975855E+03 0.41350107354E+03 0.49243010604E+03 0.21807123176E+03
 0.14931444546E+03 0.93988738617E+02 0.56772203893E+02 0.33693024764E+02 0.19930166006E+02
 0.11874763394E+02 0.71954610988E+01 0.44838358680E+01 0.29186518765E+01 0.20266635712E+01
 0.15273971992E+01 0.12777799719E+01 0.11571692192E+01 0.11116047904E+01 0.11096140327E+01
 0.11317009607E+01 0.11648679100E+01 0.12001794926E+01 0.12318174135E+01 0.12565555702E+01
 0.12731112441E+01 0.12813131650E+01 0.12813130405E+01 0.12731108986E+01 0.12565550831E+01
 0.12318169040E+01 0.12001791007E+01 0.11648677731E+01 0.11317011912E+01 0.11096147045E+01
 0.11116059473E+01 0.11571709152E+01 0.12777823632E+01 0.15274007148E+01 0.20266694585E+01
 0.29186620136E+01 0.44838540091E+01 0.71954939583E+01 0.11874822367E+02 0.19930269677E+02
 0.33693201959E+02 0.56772495662E+02 0.93989191855E+02 0.14931507358E+03 0.21807189985E+03
 0.27296982634E+03 0.27296950810E+03 0.11704749049E+03 0.82059117541E+02 0.53641395361E+02
 0.33693025254E+02 0.20754067104E+02 0.12722483698E+02 0.78555481733E+01 0.49455628981E+01
 0.32232449803E+01 0.22190955196E+01 0.16398062803E+01 0.13450364887E+01 0.11974258647E+01
 0.11365358012E+01 0.11268761761E+01 0.11466272613E+01 0.11813351184E+01 0.12209022255E+01
 0.12583940795E+01 0.12895380090E+01 0.13122268660E+01 0.13258110919E+01 0.13303115183E+01
 0.13258107567E+01 0.13122262612E+01 0.12895372560E+01 0.12583933372E+01 0.12209016648E+01
 0.11813348944E+01 0.11466274915E+01 0.11268769359E+01 0.11365371525E+01 0.11974279332E+01
 0.13450396151E+01 0.16398112798E+01 0.22191044799E+01 0.32232608263E+01 0.49455911352E+01
 0.78555979172E+01 0.12722569079E+02 0.20754208680E+02 0.33693249325E+02 0.53641727553E+02
 0.82059560553E+02 0.11704797544E+03 0.14931510021E+03 0.16303767300E+03 0.14931475573E+03
 0.63827555050E+02 0.45548582591E+02 0.30669157698E+02 0.19930166504E+02 0.12722483839E+02
 0.80937476689E+01 0.52019708435E+01 0.34306799591E+01 0.23677902697E+01 0.17349539032E+01
 0.14063284284E+01 0.12368660034E+01 0.11630400005E+01 0.11468257947E+01 0.11647463010E+01
 0.12012646836E+01 0.12453952681E+01 0.12892813357E+01 0.13276770259E+01 0.13575850920E+01
 0.13777098827E+01 0.13877510111E+01 0.13877507876E+01 0.13777092490E+01 0.13575841527E+01
 0.13276759374E+01 0.12892802822E+01 0.12453944327E+01 0.12012642209E+01 0.11647463214E+01
 0.11468263774E+01 0.11630412489E+01 0.12368681652E+01 0.14063321067E+01 0.17349603870E+01
 0.23678025245E+01 0.34307018484E+01 0.52020090736E+01 0.80938122854E+01 0.12722588511E+02
 0.19930327600E+02 0.30669389367E+02 0.45548884750E+02 0.63827892446E+02 0.82059571841E+02
 0.93989219115E+02 0.93989105058E+02 0.82059287749E+02 0.35354341891E+02 0.25623544237E+02
 0.17703814342E+02 0.11874763780E+02 0.78555483253E+01 0.52019708878E+01 0.35043770443E+01
 0.24490786770E+01 0.17988919777E+01 0.14531850307E+01 0.12700656307E+01 0.11872769467E+01
 0.11664081076E+01 0.11833558552E+01 0.12220463213E+01 0.12709660892E+01 0.13216043353E+01
 0.13679058537E+01 0.14060117669E+01 0.14338779737E+01 0.14507022890E+01 0.14563109680E+01
 0.14507017427E+01 0.14338769552E+01 0.14060104131E+01 0.13679043424E+01 0.13216028581E+01
 0.12709648226E+01 0.12220454048E+01 0.11833553892E+01 0.11664081868E+01 0.11872777466E+01
 0.12700675673E+01 0.14531890163E+01 0.17988997788E+01 0.24490939931E+01 0.35044042376E+01
 0.52020169150E+01 0.78556222328E+01 0.11874875737E+02 0.17703972515E+02 0.25623748356E+02
 0.35354573426E+02 0.45548889799E+02 0.53641740126E+02 0.56772515983E+02 0.53641607708E+02
 0.45548675704E+02 0.19929137355E+02 0.14670317184E+02 0.10391603772E+02 0.71954613692E+01
 0.49455630221E+01 0.34306800088E+01 0.24490786916E+01 0.18214497243E+01 0.14786050899E+01
 0.12922230945E+01 0.12057335464E+01 0.11827850747E+01 0.11999199353E+01 0.12412080766E+01
 0.12950347686E+01 0.13525528477E+01 0.14071299551E+01 0.14541634862E+01 0.14908442232E+01
 0.15157364847E+01 0.15282637894E+01 0.15282634558E+01 0.15157355214E+01 0.14908427367E+01
 0.14541616335E+01 0.14071279190E+01 0.13525508091E+01 0.12950328820E+01 0.12412064590E+01
 0.11999186805E+01 0.11827843097E+01 0.12057335451E+01 0.12922244643E+01 0.14786090416E+01
 0.18214584001E+01 0.24490961974E+01 0.34307106548E+01 0.49456128682E+01 0.71955370333E+01
 0.10391710311E+02 0.14670454636E+02 0.19929295891E+02 0.25623750708E+02 0.30669395324E+02
 0.33693259424E+02 0.33693215384E+02 0.30669278005E+02 0.25623594936E+02 0.11477522035E+02
 0.85959729233E+01 0.62525147362E+01 0.44838360483E+01 0.32232450708E+01 0.23677903112E+01
 0.17988919933E+01 0.14786050943E+01 0.13000071940E+01 0.12157016870E+01 0.11936347366E+01
 0.12122854025E+01 0.12565967166E+01 0.13153066766E+01 0.13795688923E+01 0.14424439872E+01
 0.14987725202E+01 0.15450511799E+01 0.15791555780E+01 0.15999531188E+01 0.16069325124E+01
 0.15999523501E+01 0.15791541122E+01 0.15450491462E+01 0.14987700826E+01 0.14424413176E+01
 0.13795661458E+01 0.13153039755E+01 0.12565941528E+01 0.12122830701E+01 0.11936328082E+01
 0.12157005451E+01 0.13000076238E+01 0.14786085307E+01 0.17989007621E+01 0.23678085035E+01
 0.32232763694E+01 0.44838849419E+01 0.62525847086E+01 0.85960644894E+01 0.11477629963E+02
 0.14670455768E+02 0.17703975408E+02 0.19930332659E+02 0.20754215776E+02 0.19930278058E+02
 0.17703881293E+02 0.14670344566E+02 0.67943283518E+01 0.51963199462E+01 0.38998689478E+01
 0.29186519933E+01 0.22190955814E+01 0.17349539321E+01 0.14531850433E+01 0.12922230989E+01
 0.12157016879E+01 0.11974291928E+01 0.12188824834E+01 0.12665395087E+01 0.13299204132E+01
 0.14005030336E+01 0.14713163564E+01 0.15368694599E+01 0.15931077341E+01 0.16372485672E+01
 0.16675179918E+01 0.16828873560E+01 0.16828869124E+01 0.16675166969E+01 0.16372465208E+01
 0.15931050790E+01 0.15368663544E+01 0.14713129484E+01 0.14004994412E+01 0.13299167202E+01
 0.12665357820E+01 0.12188788223E+01 0.11974258191E+01 0.12156990808E+01 0.12922221709E+01
 0.14531873298E+01 0.17349617159E+01 0.22191125538E+01 0.29186808698E+01 0.38999123965E+01
 0.51963788213E+01 0.67944001122E+01 0.85960650507E+01 0.10391711752E+02 0.11874878306E+02
 0.12722592251E+02 0.12722573741E+02 0.11874827461E+02 0.10391640502E+02 0.85959876274E+01
 0.41740570169E+01 0.32821293074E+01 0.25646635846E+01 0.20266636446E+01 0.16398063185E+01
 0.14063284475E+01 0.12700656389E+01 0.12057335488E+01 0.11936347363E+01 0.12188824825E+01
 0.12699750607E+01 0.13375656013E+01 0.14137351342E+01 0.14917326492E+01 0.15659668239E+01
 0.16320179074E+01 0.16865506282E+01 0.17271488214E+01 0.17521592161E+01 0.17606042250E+01
 0.17521582283E+01 0.17271469161E+01 0.16865479284E+01 0.16320145612E+01 0.15659629739E+01
 0.14917284088E+01 0.14137305769E+01 0.13375607685E+01 0.12699699943E+01 0.12188772871E+01
 0.11936296740E+01 0.12057291638E+01 0.12700628971E+01 0.14063288500E+01 0.16398119088E+01
 0.20266774444E+01 0.25646873050E+01 0.32821640502E+01 0.41741018729E+01 0.51963791072E+01
 0.62525854424E+01 0.71955383609E+01 0.78556242176E+01 0.80938148606E+01 0.78556008782E+01
 0.71954970235E+01 0.62525347403E+01 0.51963278872E+01 0.27028070904E+01 0.22078335545E+01
 0.17996891470E+01 0.15273972421E+01 0.13450365119E+01 0.12368660143E+01 0.11872769503E+01
 0.11827850741E+01 0.12122854000E+01 0.12665395059E+01 0.13375655993E+01 0.14182594450E+01
 0.15022972931E+01 0.15841967422E+01 0.16593700600E+01 0.17240841190E+01 0.17753586650E+01
 0.18108931679E+01 0.18290794347E+01 0.18290788790E+01 0.18108915387E+01 0.17753560667E+01
 0.17240806945E+01 0.16593659560E+01 0.15841920774E+01 0.15022921388E+01 0.14182538245E+01
 0.13375595093E+01 0.12665329619E+01 0.12122785068E+01 0.11827781172E+01 0.11872704988E+01
 0.12368610131E+01 0.13450343203E+01 0.15273995496E+01 0.17996976871E+01 0.22078502838E+01
 0.27028315348E+01 0.32821641989E+01 0.38999127787E+01 0.44838856393E+01 0.49456139314E+01
 0.52020183371E+01 0.52020107762E+01 0.49455929835E+01 0.44838558500E+01 0.38998799635E+01
 0.32821337134E+01 0.18634509973E+01 0.16070923778E+01 0.14122489645E+01 0.12777799970E+01
 0.11974258773E+01 0.11630400048E+01 0.11664081066E+01 0.11999199312E+01 0.12565967110E+01
 0.13299204075E+01 0.14137351295E+01 0.15022972903E+01 0.15904036494E+01 0.16734789281E+01
 0.17475639409E+01 0.18092477241E+01 0.18556434722E+01 0.18844758526E+01 0.18942593855E+01
 0.18844746275E+01 0.18556411026E+01 0.18092443489E+01 0.17475597194E+01 0.16734739998E+01
 0.15903981022E+01 0.15022911480E+01 0.14137283624E+01 0.13299129667E+01 0.12565885851E+01
 0.11999112191E+01 0.11663990993E+01 0.11630312610E+01 0.11974182685E+01 0.12777746865E+01
 0.14122472718E+01 0.16070954923E+01 0.18634595544E+01 0.22078503623E+01 0.25646875070E+01
 0.29186812413E+01 0.32232769445E+01 0.34307114423E+01 0.35044052103E+01 0.34307029474E+01
 0.32232619700E+01 0.29186631210E+01 0.25646698628E+01 0.22078361419E+01 0.14394708226E+01
 0.13068314388E+01 0.12129229959E+01 0.11571692324E+01 0.11365358058E+01 0.11468257932E+01
 0.11833558497E+01 0.12412080686E+01 0.13153066673E+01 0.14005030244E+01 0.14917326409E+01
 0.15841967359E+01 0.16734789245E+01 0.17555538194E+01 0.18267356827E+01 0.18836737720E+01
 0.19234780084E+01 0.19439707295E+01 0.19439700432E+01 0.19234759963E+01 0.18836705614E+01
 0.18267314462E+01 0.17555487279E+01 0.16734731036E+01 0.15841902370E+01 0.14917254380E+01
 0.14004950358E+01 0.13152978025E+01 0.12411982918E+01 0.11833452523E+01 0.11468146613E+01
 0.11365246680E+01 0.11571588673E+01 0.12129143734E+01 0.13068255709E+01 0.14394685195E+01
 0.16070955324E+01 0.17996977900E+01 0.20266776437E+01 0.22191128665E+01 0.23678089398E+01
 0.24490967507E+01 0.24490946381E+01 0.23678032210E+01 0.22191051823E+01 0.20266701243E+01
 0.17996927904E+01 0.16070939607E+01 0.12201528520E+01 0.11575661693E+01 0.11213609834E+01
 0.11116047950E+01 0.11268761742E+01 0.11647462943E+01 0.12220463113E+01 0.12950347564E+01
 0.13795688790E+01 0.14713163431E+01 0.15659668114E+01 0.16593700494E+01 0.17475639330E+01
 0.18267356785E+01 0.18932203771E+01 0.19436327634E+01 0.19751518449E+01 0.19858813547E+01
 0.19751503380E+01 0.19436298503E+01 0.18932162321E+01 0.18267305024E+01 0.17475579007E+01
 0.16593632654E+01 0.15659592881E+01 0.14713080067E+01 0.13795596038E+01 0.12950244206E+01
 0.12220348653E+01 0.11647338278E+01 0.11268629691E+01 0.11115913495E+01 0.11213479935E+01
 0.11575544532E+01 0.12201432138E+01 0.13068255929E+01 0.14122473279E+01 0.15273996530E+01
 0.16398120717E+01 0.17349619461E+01 0.17989010599E+01 0.18214587563E+01 0.17989001760E+01
 0.17349608022E+01 0.16398116897E+01 0.15274011003E+01 0.14122513834E+01 0.13068325483E+01
 0.11169821436E+01 0.10945521640E+01 0.10919866697E+01 0.11096140306E+01 0.11466272540E+01
 0.12012646722E+01 0.12709660747E+01 0.13525528311E+01 0.14424439695E+01 0.15368694420E+01
 0.16320178903E+01 0.17240841037E+01 0.18092477115E+01 0.18836737630E+01 0.19436327587E+01
 0.19857813758E+01 0.20075555572E+01 0.20075547220E+01 0.19857789270E+01 0.19436288515E+01
 0.18836686115E+01 0.18092415341E+01 0.17240770684E+01 0.16320100755E+01 0.15368608227E+01
 0.14424344343E+01 0.13525422261E+01 0.12709542663E+01 0.12012516149E+01 0.11466130502E+01
 0.11095989689E+01 0.10919712308E+01 0.10945369872E+01 0.11169679502E+01 0.11575544659E+01
 0.12129144049E+01 0.12777747439E+01 0.13450344104E+01 0.14063289781E+01 0.14531874977E+01
 0.14786087356E+01 0.14786092759E+01 0.14531892686E+01 0.14063323643E+01 0.13450398663E+01
 0.12777825995E+01 0.12129247213E+01 0.11575669854E+01 0.10802850030E+01 0.10809966747E+01
 0.10980332788E+01 0.11317009533E+01 0.11813351062E+01 0.12453952521E+01 0.13216043163E+01
 0.14071299340E+01 0.14987724978E+01 0.15931077115E+01 0.16865506062E+01 0.17753586448E+01
 0.18556434547E+01 0.19234779944E+01 0.19751518352E+01 0.20075555522E+01 0.20186018648E+01
 0.20075537588E+01 0.19751483622E+01 0.19234730419E+01 0.18556372612E+01 0.17753514307E+01
 0.16865425228E+01 0.15930988096E+01 0.14987627245E+01 0.14071191586E+01 0.13215923819E+01
 0.12453820394E+01 0.11813205978E+01 0.11316852831E+01 0.10980167566E+01 0.10809797796E+01
 0.10802683431E+01 0.10945369949E+01 0.11213480120E+01 0.11571589001E+01 0.11974183192E+01
 0.12368610848E+01 0.12700629913E+01 0.12922222872E+01 0.13000077591E+01 0.12922246133E+01
 0.12700677235E+01 0.12368683222E+01 0.11974280857E+01 0.11571710603E+01 0.11213622303E+01
 0.10945527527E+01 0.10813103883E+01 0.10948322380E+01 0.11226225063E+01 0.11648678981E+01
 0.12209022091E+01 0.12892813154E+01 0.13679058302E+01 0.14541634604E+01 0.15450511528E+01
 0.16372485396E+01 0.17271487945E+01 0.18108931426E+01 0.18844758300E+01 0.19439707105E+01
 0.19858813399E+01 0.20075547121E+01 0.20075537538E+01 0.19858785224E+01 0.19439661923E+01
 0.18844698363E+01 0.18108859155E+01 0.17271405405E+01 0.16372393870E+01 0.15450411308E+01
 0.14541525055E+01 0.13678938190E+01 0.12892681182E+01 0.12208877509E+01 0.11648522135E+01
 0.11226057776E+01 0.10948148072E+01 0.10812927416E+01 0.10809797848E+01 0.10919712424E+01
 0.11115913690E+01 0.11365246971E+01 0.11630313011E+01 0.11872705508E+01 0.12057292279E+01
 0.12156991556E+01 0.12157006285E+01 0.12057336340E+01 0.11872778378E+01 0.11630413396E+01
 0.11365372411E+01 0.11116060338E+01 0.10919875135E+01 0.10809970589E+01 0.11022256942E+01
 0.11218015306E+01 0.11544228599E+01 0.12001794766E+01 0.12583940590E+01 0.13276770014E+01
 0.14060117390E+01 0.14908441929E+01 0.15791555461E+01 0.16675179594E+01 0.17521591842E+01
 0.18290794045E+01 0.18942593580E+01 0.19439700193E+01 0.19751503184E+01 0.19857789122E+01
 0.19751483524E+01 0.19439661875E+01 0.18942538408E+01 0.18290724268E+01 0.17521509706E+01
 0.16675086912E+01 0.15791453303E+01 0.14908330510E+01 0.14059996211E+01 0.13276638218E+01
 0.12583797464E+01 0.12001640264E+01 0.11544063768E+01 0.11217842542E+01 0.11022079994E+01
 0.10948148111E+01 0.10980167647E+01 0.11095989814E+01 0.11268629864E+01 0.11468146836E+01
 0.11663991269E+01 0.11827781499E+01 0.11936297113E+01 0.11974258602E+01 0.11936328516E+01
 0.11827843543E+01 0.11664082314E+01 0.11468264217E+01 0.11268769805E+01 0.11096147511E+01
 0.10980337545E+01 0.10948324351E+01 0.11312267736E+01 0.11523221260E+01 0.11858426761E+01
 0.12318173938E+01 0.12895379846E+01 0.13575850634E+01 0.14338779416E+01 0.15157364499E+01
 0.15999530823E+01 0.16828873190E+01 0.17606041886E+01 0.18290788442E+01 0.18844745955E+01
 0.19234759680E+01 0.19436298264E+01 0.19436288324E+01 0.19234730278E+01 0.18844698272E+01
 0.18290724224E+01 0.17605963143E+01 0.16828781854E+01 0.15999428438E+01 0.15157252020E+01
 0.14338657189E+01 0.13575718569E+01 0.12895237745E+01 0.12318021917E+01 0.11858265643E+01
 0.11523052865E+01 0.11312094997E+01 0.11217842576E+01 0.11226057842E+01 0.11316852923E+01
 0.11466130613E+01 0.11647338404E+01 0.11833452658E+01 0.11999112329E+01 0.12122785206E+01
 0.12188773003E+01 0.12188788345E+01 0.12122830810E+01 0.11999186902E+01 0.11833553982E+01
 0.11647463310E+01 0.11466275037E+01 0.11317012088E+01 0.11226226571E+01 0.11218015690E+01
 0.11604762346E+01 0.11802363741E+01 0.12122827487E+01 0.12565555470E+01 0.13122268379E+01
 0.13777098502E+01 0.14507022529E+01 0.15282637505E+01 0.16069324718E+01 0.16828868713E+01
 0.17521581878E+01 0.18108915000E+01 0.18556410668E+01 0.18836705293E+01 0.18932162043E+01
 0.18836685886E+01 0.18556372433E+01 0.18108859026E+01 0.17521509624E+01 0.16828781816E+01
 0.16069224773E+01 0.15282525874E+01 0.14506900234E+01 0.13776966253E+01 0.13122126729E+01
 0.12565405080E+01 0.12122669419E+01 0.11802199716E+01 0.11604594882E+01 0.11523052900E+01
 0.11544063831E+01 0.11648522214E+01 0.11813206062E+01 0.12012516224E+01 0.12220348709E+01
 0.12411982944E+01 0.12565885840E+01 0.12665329566E+01 0.12699699847E+01 0.12665357682E+01
 0.12565941355E+01 0.12412064394E+01 0.12220453847E+01 0.12012642027E+01 0.11813348812E+01
 0.11648677682E+01 0.11544227547E+01 0.11523220481E+01 0.11852510954E+01 0.12021673261E+01
 0.12315371900E+01 0.12731112176E+01 0.13258110603E+01 0.13877509750E+01 0.14563109282E+01
 0.15282634132E+01 0.15999523059E+01 0.16675166523E+01 0.17271468723E+01 0.17753560248E+01
 0.18092443099E+01 0.18267314111E+01 0.18267304717E+01 0.18092415081E+01 0.17753514097E+01
 0.17271405244E+01 0.16675086798E+01 0.15999428366E+01 0.15282525841E+01 0.14562988752E+01
 0.13877378284E+01 0.13257969468E+01 0.12730962713E+01 0.12315215683E+01 0.12021512265E+01
 0.11852347664E+01 0.11802199753E+01 0.11858265707E+01 0.12001640341E+01 0.12208877583E+01
 0.12453820448E+01 0.12709542678E+01 0.12950244168E+01 0.13152977921E+01 0.13299129491E+01
 0.13375594842E+01 0.13375607362E+01 0.13299166816E+01 0.13153039323E+01 0.12950328363E+01
 0.12709647772E+01 0.12453943909E+01 0.12209016301E+01 0.12001790768E+01 0.11858424072E+01
 0.11802362315E+01 0.12033010207E+01 0.12168089672E+01 0.12430006374E+01 0.12813131353E+01
 0.13303114835E+01 0.13877507483E+01 0.14507016997E+01 0.15157354759E+01 0.15791540652E+01
 0.16372464736E+01 0.16865478821E+01 0.17240806503E+01 0.17475596783E+01 0.17555486906E+01
 0.17475578678E+01 0.17240770403E+01 0.16865424996E+01 0.16372393685E+01 0.15791453164E+01
 0.15157251922E+01 0.14506900174E+01 0.13877378256E+01 0.13302974963E+01 0.12812982766E+01
 0.12429851201E+01 0.12167930298E+01 0.12032849319E+01 0.12021512303E+01 0.12122669487E+01
 0.12318021999E+01 0.12583797540E+01 0.12892681231E+01 0.13215923817E+01 0.13525422189E+01
 0.13795595879E+01 0.14004950100E+01 0.14137283262E+01 0.14182537782E+01 0.14137305214E+01
 0.14004993781E+01 0.13795660777E+01 0.13525507389E+01 0.13216027894E+01 0.12892802189E+01
 0.12583932830E+01 0.12318168626E+01 0.12122824179E+01 0.12021671712E+01 0.12140259599E+01
 0.12240324529E+01 0.12467806230E+01 0.12813130080E+01 0.13258107191E+01 0.13777092071E+01
 0.14338769099E+01 0.14908426890E+01 0.15450490974E+01 0.15931050302E+01 0.16320145135E+01
 0.16593659105E+01 0.16734739575E+01 0.16734730651E+01 0.16593632313E+01 0.16320100460E+01
 0.15930987849E+01 0.15450411107E+01 0.14908330352E+01 0.14338657071E+01 0.13776966170E+01
 0.13257969416E+01 0.12812982742E+01 0.12467651888E+01 0.12240165946E+01 0.12140099713E+01
 0.12167930338E+01 0.12315215755E+01 0.12565405167E+01 0.12895237826E+01 0.13276638268E+01
 0.13678938183E+01 0.14071191498E+01 0.14424344150E+01 0.14713079755E+01 0.14917253938E+01
 0.15022910908E+01 0.15022920693E+01 0.14917283287E+01 0.14713128603E+01 0.14424412247E+01
 0.14071278250E+01 0.13679042512E+01 0.13276758532E+01 0.12895371827E+01 0.12565550242E+01
 0.12315368919E+01 0.12168088445E+01 0.12175560411E+01 0.12240324071E+01 0.12430004734E+01
 0.12731108637E+01 0.13122262214E+01 0.13575841089E+01 0.14060103663E+01 0.14541615847E+01
 0.14987700329E+01 0.15368663050E+01 0.15659629258E+01 0.15841920316E+01 0.15903980596E+01
 0.15841901983E+01 0.15659592536E+01 0.15368607927E+01 0.14987626990E+01 0.14541524844E+01
 0.14059996041E+01 0.13575718435E+01 0.13122126628E+01 0.12730962641E+01 0.12429851155E+01
 0.12240165924E+01 0.12175400805E+01 0.12240165987E+01 0.12429851275E+01 0.12730962804E+01
 0.13122126815E+01 0.13575718623E+01 0.14059996205E+01 0.14541524959E+01 0.14987627032E+01
 0.15368607877E+01 0.15659592380E+01 0.15841901712E+01 0.15903980210E+01 0.15841919825E+01
 0.15659628677E+01 0.15368662402E+01 0.14987699642E+01 0.14541615152E+01 0.14060102993E+01
 0.13575840475E+01 0.13122261685E+01 0.12731108217E+01 0.12430004443E+01 0.12240323921E+01
 0.12140259410E+01 0.12168088406E+01 0.12315369018E+01 0.12565550464E+01 0.12895372149E+01
 0.13276758927E+01 0.13679042950E+01 0.14071278700E+01 0.14424412680E+01 0.14713128993E+01
 0.14917283611E+01 0.15022920936E+01 0.15022911060E+01 0.14917253997E+01 0.14713079726E+01
 0.14424344044E+01 0.14071191331E+01 0.13678937975E+01 0.13276638040E+01 0.12895237601E+01
 0.12565404966E+01 0.12315215595E+01 0.12167930233E+01 0.12140099670E+01 0.12240165966E+01
 0.12467651964E+01 0.12812982861E+01 0.13257969558E+01 0.13776966311E+01 0.14338657185E+01
 0.14908330410E+01 0.15450411083E+01 0.15930987719E+01 0.16320100207E+01 0.16593631925E+01
 0.16734730125E+01 0.16734738919E+01 0.16593658334E+01 0.16320144272E+01 0.15931049375E+01
 0.15450490017E+01 0.14908425938E+01 0.14338768185E+01 0.13777091226E+01 0.13258106443E+01
 0.12813129453E+01 0.12467805740E+01 0.12240324188E+01 0.12033009842E+01 0.12021671498E+01
 0.12122824101E+01 0.12318168663E+01 0.12583932956E+01 0.12892802374E+01 0.13216028110E+01
 0.13525507606E+01 0.13795660971E+01 0.14004993931E+01 0.14137305304E+01 0.14182537804E+01
 0.14137283214E+01 0.14004949984E+01 0.13795595704E+01 0.13525421968E+01 0.13215923565E+01
 0.12892680966E+01 0.12583797281E+01 0.12318021765E+01 0.12122669293E+01 0.12021512161E+01
 0.12032849236E+01 0.12167930275E+01 0.12429851232E+01 0.12812982838E+01 0.13302975057E+01
 0.13877378346E+01 0.14506900233E+01 0.15157251920E+01 0.15791453070E+01 0.16372393474E+01
 0.16865424644E+01 0.17240769897E+01 0.17475578013E+01 0.17555486085E+01 0.17475595821E+01
 0.17240805423E+01 0.16865477653E+01 0.16372463514E+01 0.15791539412E+01 0.15157353539E+01
 0.14507015831E+01 0.13877506403E+01 0.13303113868E+01 0.12813130522E+01 0.12430005693E+01
 0.12168089149E+01 0.11852510432E+01 0.11802361943E+01 0.11858423828E+01 0.12001790626E+01
 0.12209016233E+01 0.12453943884E+01 0.12709647762E+01 0.12950328346E+01 0.13153039279E+01
 0.13299166733E+01 0.13375607232E+01 0.13375594664E+01 0.13299129268E+01 0.13152977660E+01
 0.12950243879E+01 0.12709542374E+01 0.12453820143E+01 0.12208877291E+01 0.12001640077E+01
 0.11858265483E+01 0.11802199579E+01 0.11852347546E+01 0.12021512203E+01 0.12315215671E+01
 0.12730962738E+01 0.13257969512E+01 0.13877378322E+01 0.14562988755E+01 0.15282525776E+01
 0.15999428202E+01 0.16675086505E+01 0.17271404796E+01 0.17753513477E+01 0.18092414280E+01
 0.18267303736E+01 0.18267312962E+01 0.18092441806E+01 0.17753558840E+01 0.17271467236E+01
 0.16675164996E+01 0.15999521532E+01 0.15282632644E+01 0.14563107868E+01 0.13877508443E+01
 0.13258109430E+01 0.12731111157E+01 0.12315371046E+01 0.12021672576E+01 0.11604761682E+01
 0.11523219957E+01 0.11544227136E+01 0.11648677352E+01 0.11813348534E+01 0.12012641773E+01
 0.12220453594E+01 0.12412064126E+01 0.12565941061E+01 0.12665357360E+01 0.12699699498E+01
 0.12665329196E+01 0.12565885457E+01 0.12411982557E+01 0.12220348328E+01 0.12012515860E+01
 0.11813205725E+01 0.11648521914E+01 0.11544063576E+01 0.11523052696E+01 0.11604594732E+01
 0.11802199619E+01 0.12122669369E+01 0.12565405062E+01 0.13122126726E+01 0.13776966240E+01
 0.14506900182E+01 0.15282525749E+01 0.16069224541E+01 0.16828781445E+01 0.17521509086E+01
 0.18108858299E+01 0.18556371504E+01 0.18836684755E+01 0.18932160719E+01 0.18836703798E+01
 0.18556409031E+01 0.18108913258E+01 0.17521580072E+01 0.16828866885E+01 0.16069322912E+01
 0.15282635763E+01 0.14507020887E+01 0.13777096992E+01 0.13122267027E+01 0.12565554291E+01
 0.12122826487E+01 0.11802362916E+01 0.11312266930E+01 0.11218015002E+01 0.11226225968E+01
 0.11317011536E+01 0.11466274508E+01 0.11647462782E+01 0.11833553441E+01 0.11999186342E+01
 0.12122830233E+01 0.12188787760E+01 0.12188772421E+01 0.12122784639E+01 0.11999111790E+01
 0.11833452155E+01 0.11647337946E+01 0.11466130206E+01 0.11316852570E+01 0.11226057547E+01
 0.11217842339E+01 0.11312094816E+01 0.11523052736E+01 0.11858265557E+01 0.12318021861E+01
 0.12895237699E+01 0.13575718509E+01 0.14338657087E+01 0.15157251841E+01 0.15999428147E+01
 0.16828781417E+01 0.17605962527E+01 0.18290723404E+01 0.18844697232E+01 0.19234729014E+01
 0.19436286843E+01 0.19436296586E+01 0.19234757833E+01 0.18844743976E+01 0.18290786375E+01
 0.17606039775E+01 0.16828871082E+01 0.15999528764E+01 0.15157362532E+01 0.14338777578E+01
 0.13575848956E+01 0.12895378348E+01 0.12318172629E+01 0.11858425637E+01 0.11523220307E+01
 0.11022255968E+01 0.10948323455E+01 0.10980336692E+01 0.11096146668E+01 0.11268768948E+01
 0.11468263334E+01 0.11664081404E+01 0.11827842617E+01 0.11936327593E+01 0.11974257703E+01
 0.11936296262E+01 0.11827780715E+01 0.11663990565E+01 0.11468146220E+01 0.11268629336E+01
 0.11095989373E+01 0.10980167288E+01 0.10948147826E+01 0.11022079775E+01 0.11217842379E+01
 0.11544063650E+01 0.12001640173E+01 0.12583797381E+01 0.13276638118E+01 0.14059996066E+01
 0.14908330285E+01 0.15791452964E+01 0.16675086421E+01 0.17521509028E+01 0.18290723375E+01
 0.18942537280E+01 0.19439660504E+01 0.19751481914E+01 0.19857787290E+01 0.19751501157E+01
 0.19439698008E+01 0.18942591279E+01 0.18290791677E+01 0.17521589455E+01 0.16675177239E+01
 0.15791553188E+01 0.14908439779E+01 0.14060115401E+01 0.13276768208E+01 0.12583938979E+01
 0.12001793349E+01 0.11544227358E+01 0.11218014215E+01 0.10813102674E+01 0.10809969398E+01
 0.10919873925E+01 0.11116059080E+01 0.11365371090E+01 0.11630412017E+01 0.11872776960E+01
 0.12057334919E+01 0.12157004903E+01 0.12156990256E+01 0.12057291096E+01 0.11872704469E+01
 0.11630312125E+01 0.11365246237E+01 0.11115913098E+01 0.10919711957E+01 0.10809797488E+01
 0.10812927145E+01 0.10948147870E+01 0.11226057625E+01 0.11648522013E+01 0.12208877394E+01
 0.12892681049E+01 0.13678938010E+01 0.14541524794E+01 0.15450410932E+01 0.16372393340E+01
 0.17271404684E+01 0.18108858213E+01 0.18844697175E+01 0.19439660476E+01 0.19858783519E+01
 0.20075535588E+01 0.20075544951E+01 0.19858811045E+01 0.19439704608E+01 0.18844755710E+01
 0.18108928795E+01 0.17271485327E+01 0.16372482843E+01 0.15450509090E+01 0.14541632322E+01
 0.13679056204E+01 0.12892811254E+01 0.12209020386E+01 0.11648677454E+01 0.11226223684E+01
 0.10948321108E+01 0.10802848466E+01 0.10945525890E+01 0.11213620552E+01 0.11571708717E+01
 0.11974278839E+01 0.12368681102E+01 0.12700675071E+01 0.12922243999E+01 0.13000075568E+01
 0.12922221031E+01 0.12700628306E+01 0.12368609499E+01 0.11974182100E+01 0.11571588147E+01
 0.11213479470E+01 0.10945369467E+01 0.10802683080E+01 0.10809797542E+01 0.10980167378E+01
 0.11316852680E+01 0.11813205838E+01 0.12453820236E+01 0.13215923613E+01 0.14071191301E+01
 0.14987626844E+01 0.15930987543E+01 0.16865424484E+01 0.17753513339E+01 0.18556371392E+01
 0.19234728931E+01 0.19751481860E+01 0.20075535563E+01 0.20186016380E+01 0.20075553045E+01
 0.19751515707E+01 0.19234777179E+01 0.18556431715E+01 0.17753583607E+01 0.16865503268E+01
 0.15931074421E+01 0.14987722431E+01 0.14071296973E+01 0.13216040992E+01 0.12453950544E+01
 0.11813349258E+01 0.11317007867E+01 0.10980331211E+01 0.10809965205E+01 0.11169819306E+01
 0.11575667503E+01 0.12129244596E+01 0.12777823104E+01 0.13450395532E+01 0.14063320357E+01
 0.14531889369E+01 0.14786089556E+01 0.14786084407E+01 0.14531872393E+01 0.14063287622E+01
 0.13450342382E+01 0.12777746123E+01 0.12129143082E+01 0.11575543970E+01 0.11169679023E+01
 0.10945369542E+01 0.10919712076E+01 0.11095989512E+01 0.11466130344E+01 0.12012515976E+01
 0.12709542444E+01 0.13525421964E+01 0.14424343932E+01 0.15368607667E+01 0.16320100008E+01
 0.17240769714E+01 0.18092414119E+01 0.18836684620E+01 0.19436286738E+01 0.19857787214E+01
 0.20075544904E+01 0.20075553023E+01 0.19857811016E+01 0.19436324700E+01 0.18836734650E+01
 0.18092474101E+01 0.17240838048E+01 0.16320175996E+01 0.15368691646E+01 0.14424437091E+01
 0.13525525895E+01 0.12709658517E+01 0.12012644654E+01 0.11466270593E+01 0.11096138422E+01