unknown system                          
   1.00000000000000     
     0.000004    2.028818    2.028818
     2.028818    0.000004    2.028818
     2.028818    2.028818    0.000004
   Li   F 
     1     1
Direct
  0.000000  0.000000  1.000000
  0.500000  0.500000  0.500000
 
   48   48   48
  177.47      171.95      156.33      133.19      106.08      78.660      53.981      34.003      19.491      10.170    
  5.0402      2.7377      1.8634      1.4394      1.2201      1.1170      1.0803      1.0813      1.1022      1.1312    
  1.1604      1.1852      1.2033      1.2140      1.2176      1.2140      1.2033      1.1852      1.1604      1.1312    
  1.1022      1.0813      1.0803      1.1170      1.2201      1.4394      1.8634      2.7377      5.0402      10.170    
  19.491      34.003      53.981      78.660      106.08      133.19      156.33      171.95      171.95      161.38    
  142.04      117.01      89.926      64.159      42.189      25.344      13.828      6.9653      3.5477      2.1774    
  1.6070      1.3068      1.1576      1.0946      1.0810      1.0948      1.1217      1.1522      1.1802      1.2021    
  1.2168      1.2240      1.2240      1.2168      1.2021      1.1802      1.1522      1.1217      1.0948      1.0810    
  1.0946      1.1576      1.3068      1.6070      2.1774      3.5477      6.9653      13.828      25.344      42.189    
  64.159      89.926      117.01      142.04      161.38      171.95      156.33      142.04      120.87      96.095    
  71.074      48.603      30.480      17.394      9.0690      4.5554      2.5680      1.7996      1.4122      1.2129    
  1.1214      1.0920      1.0980      1.1226      1.1544      1.1858      1.2122      1.2315      1.2430      1.2468    
  1.2430      1.2315      1.2122      1.1858      1.1544      1.1226      1.0980      1.0920      1.1214      1.2129    
  1.4122      1.7996      2.5680      4.5554      9.0691      17.394      30.481      48.603      71.074      96.095    
  120.87      142.04      156.33      161.38      133.19      117.01      96.095      73.525      52.132      34.004    
  20.243      10.983      5.6025      3.0192      1.9999      1.5273      1.2777      1.1572      1.1116      1.1096    
  1.1317      1.1648      1.2001      1.2317      1.2565      1.2731      1.2813      1.2813      1.2731      1.2565    
  1.2318      1.2001      1.1648      1.1317      1.1096      1.1116      1.1572      1.2778      1.5273      1.9999    
  3.0192      5.6025      10.984      20.243      34.004      52.132      73.525      96.095      117.01      133.19    
  142.04      142.04      106.08      89.926      71.074      52.132      35.259      21.827      12.326      6.4746    
  3.4548      2.1887      1.6397      1.3450      1.1974      1.1365      1.1269      1.1466      1.1813      1.2209    
  1.2583      1.2895      1.3122      1.3258      1.3303      1.3258      1.3122      1.2895      1.2583      1.2208    
  1.1813      1.1466      1.1269      1.1365      1.1974      1.3450      1.6397      2.1887      3.4548      6.4747    
  12.326      21.827      35.259      52.132      71.074      89.926      106.08      117.01      120.87      117.01    
  78.660      64.159      48.603      34.004      21.827      12.809      6.9710      3.7732      2.3438      1.7349    
  1.4063      1.2368      1.1630      1.1468      1.1647      1.2012      1.2454      1.2892      1.3276      1.3575    
  1.3777      1.3877      1.3877      1.3777      1.3576      1.3276      1.2892      1.2453      1.2012      1.1647    
  1.1468      1.1630      1.2368      1.4063      1.7349      2.3438      3.7732      6.9710      12.809      21.827    
  34.004      48.603      64.159      78.661      89.926      96.095      96.095      89.926      53.981      42.189    
  30.480      20.243      12.326      6.9710      3.8901      2.4329      1.7988      1.4531      1.2700      1.1872    
  1.1664      1.1834      1.2220      1.2709      1.3216      1.3679      1.4060      1.4338      1.4507      1.4563    
  1.4507      1.4339      1.4060      1.3679      1.3216      1.2709      1.2220      1.1833      1.1664      1.1873    
  1.2700      1.4531      1.7988      2.4329      3.8901      6.9710      12.326      20.243      30.481      42.189    
  53.981      64.159      71.074      73.526      71.074      64.159      34.003      25.344      17.394      10.983    
  6.4746      3.7732      2.4329      1.8214      1.4785      1.2922      1.2057      1.1828      1.1999      1.2412    
  1.2950      1.3525      1.4071      1.4541      1.4908      1.5157      1.5283      1.5283      1.5157      1.4908    
  1.4541      1.4071      1.3525      1.2950      1.2412      1.1999      1.1828      1.2057      1.2922      1.4786    
  1.8214      2.4329      3.7732      6.4747      10.984      17.395      25.344      34.003      42.189      48.603    
  52.132      52.132      48.603      42.189      19.491      13.828      9.0690      5.6025      3.4548      2.3438    
  1.7988      1.4785      1.3000      1.2157      1.1936      1.2123      1.2566      1.3153      1.3795      1.4424    
  1.4987      1.5450      1.5791      1.5999      1.6069      1.5999      1.5791      1.5450      1.4987      1.4424    
  1.3795      1.3153      1.2566      1.2123      1.1936      1.2157      1.3000      1.4786      1.7989      2.3438    
  3.4549      5.6026      9.0691      13.828      19.491      25.344      30.481      34.004      35.259      34.004    
  30.481      25.344      10.170      6.9653      4.5554      3.0192      2.1887      1.7349      1.4531      1.2922    
  1.2157      1.1974      1.2189      1.2665      1.3299      1.4005      1.4713      1.5368      1.5931      1.6372    
  1.6675      1.6829      1.6829      1.6675      1.6372      1.5931      1.5368      1.4713      1.4005      1.3299    
  1.2665      1.2189      1.1974      1.2157      1.2922      1.4532      1.7349      2.1888      3.0193      4.5555    
  6.9654      10.170      13.828      17.395      20.243      21.827      21.827      20.243      17.394      13.828    
  5.0402      3.5477      2.5680      1.9999      1.6397      1.4063      1.2700      1.2057      1.1936      1.2189    
  1.2700      1.3375      1.4137      1.4917      1.5659      1.6320      1.6865      1.7271      1.7521      1.7606    
  1.7521      1.7271      1.6865      1.6320      1.5659      1.4917      1.4137      1.3375      1.2699      1.2188    
  1.1936      1.2057      1.2700      1.4063      1.6398      2.0000      2.5681      3.5477      5.0402      6.9654    
  9.0691      10.984      12.326      12.809      12.326      10.984      9.0691      6.9653      2.7377      2.1774    
  1.7996      1.5273      1.3450      1.2368      1.1872      1.1828      1.2123      1.2665      1.3375      1.4182    
  1.5023      1.5842      1.6593      1.7241      1.7753      1.8109      1.8291      1.8291      1.8109      1.7753    
  1.7241      1.6593      1.5842      1.5023      1.4182      1.3375      1.2665      1.2122      1.1827      1.1872    
  1.2368      1.3450      1.5274      1.7997      2.1775      2.7378      3.5477      4.5555      5.6026      6.4747    
  6.9710      6.9710      6.4747      5.6025      4.5554      3.5477      1.8634      1.6070      1.4122      1.2777    
  1.1974      1.1630      1.1664      1.1999      1.2566      1.3299      1.4137      1.5023      1.5904      1.6735    
  1.7475      1.8092      1.8556      1.8845      1.8942      1.8845      1.8556      1.8092      1.7475      1.6735    
  1.5904      1.5023      1.4137      1.3299      1.2566      1.1999      1.1664      1.1630      1.1974      1.2777    
  1.4122      1.6071      1.8634      2.1775      2.5681      3.0193      3.4549      3.7732      3.8901      3.7732    
  3.4548      3.0192      2.5680      2.1774      1.4394      1.3068      1.2129      1.1572      1.1365      1.1468    
  1.1834      1.2412      1.3153      1.4005      1.4917      1.5842      1.6735      1.7555      1.8267      1.8837    
  1.9235      1.9440      1.9440      1.9235      1.8837      1.8267      1.7555      1.6735      1.5842      1.4917    
  1.4005      1.3153      1.2412      1.1833      1.1468      1.1365      1.1571      1.2129      1.3068      1.4394    
  1.6071      1.7997      2.0000      2.1888      2.3438      2.4329      2.4329      2.3438      2.1887      1.9999    
  1.7996      1.6070      1.2201      1.1576      1.1214      1.1116      1.1269      1.1647      1.2220      1.2950    
  1.3795      1.4713      1.5659      1.6593      1.7475      1.8267      1.8932      1.9436      1.9751      1.9859    
  1.9751      1.9436      1.8932      1.8267      1.7475      1.6593      1.5659      1.4713      1.3795      1.2950    
  1.2220      1.1647      1.1268      1.1116      1.1213      1.1575      1.2201      1.3068      1.4122      1.5274    
  1.6398      1.7349      1.7989      1.8214      1.7988      1.7349      1.6397      1.5273      1.4122      1.3068    
  1.1170      1.0946      1.0920      1.1096      1.1466      1.2012      1.2709      1.3525      1.4424      1.5368    
  1.6320      1.7241      1.8092      1.8837      1.9436      1.9858      2.0075      2.0075      1.9858      1.9436    
  1.8837      1.8092      1.7241      1.6320      1.5368      1.4424      1.3525      1.2709      1.2012      1.1466    
  1.1096      1.0919      1.0945      1.1169      1.1575      1.2129      1.2777      1.3450      1.4063      1.4532    
  1.4786      1.4786      1.4531      1.4063      1.3450      1.2778      1.2129      1.1576      1.0803      1.0810    
  1.0980      1.1317      1.1813      1.2454      1.3216      1.4071      1.4987      1.5931      1.6865      1.7753    
  1.8556      1.9235      1.9751      2.0075      2.0186      2.0075      1.9751      1.9235      1.8556      1.7753    
  1.6865      1.5931      1.4987      1.4071      1.3216      1.2454      1.1813      1.1317      1.0980      1.0809    
  1.0802      1.0945      1.1213      1.1571      1.1974      1.2368      1.2700      1.2922      1.3000      1.2922    
  1.2700      1.2368      1.1974      1.1572      1.1214      1.0946      1.0813      1.0948      1.1226      1.1648    
  1.2209      1.2892      1.3679      1.4541      1.5450      1.6372      1.7271      1.8109      1.8845      1.9440    
  1.9859      2.0075      2.0075      1.9859      1.9440      1.8845      1.8109      1.7271      1.6372      1.5450    
  1.4541      1.3679      1.2892      1.2209      1.1648      1.1226      1.0948      1.0813      1.0809      1.0919    
  1.1116      1.1365      1.1630      1.1872      1.2057      1.2157      1.2157      1.2057      1.1873      1.1630    
  1.1365      1.1116      1.0920      1.0810      1.1022      1.1217      1.1544      1.2001      1.2583      1.3276    
  1.4060      1.4908      1.5791      1.6675      1.7521      1.8291      1.8942      1.9440      1.9751      1.9858    
  1.9751      1.9440      1.8942      1.8291      1.7521      1.6675      1.5791      1.4908      1.4060      1.3276    
  1.2584      1.2001      1.1544      1.1217      1.1022      1.0948      1.0980      1.1096      1.1268      1.1468    
  1.1664      1.1827      1.1936      1.1974      1.1936      1.1828      1.1664      1.1468      1.1269      1.1096    
  1.0980      1.0948      1.1312      1.1522      1.1858      1.2317      1.2895      1.3575      1.4338      1.5157    
  1.5999      1.6829      1.7606      1.8291      1.8845      1.9235      1.9436      1.9436      1.9235      1.8845    
  1.8291      1.7606      1.6829      1.5999      1.5157      1.4338      1.3575      1.2895      1.2318      1.1858    
  1.1523      1.1312      1.1217      1.1226      1.1317      1.1466      1.1647      1.1833      1.1999      1.2122    
  1.2188      1.2189      1.2123      1.1999      1.1833      1.1647      1.1466      1.1317      1.1226      1.1217    
  1.1604      1.1802      1.2122      1.2565      1.3122      1.3777      1.4507      1.5283      1.6069      1.6829    
  1.7521      1.8109      1.8556      1.8837      1.8932      1.8837      1.8556      1.8109      1.7521      1.6829    
  1.6069      1.5282      1.4507      1.3777      1.3122      1.2565      1.2122      1.1802      1.1604      1.1523    
  1.1544      1.1648      1.1813      1.2012      1.2220      1.2412      1.2566      1.2665      1.2699      1.2665    
  1.2566      1.2412      1.2220      1.2012      1.1813      1.1648      1.1544      1.1522      1.1852      1.2021    
  1.2315      1.2731      1.3258      1.3877      1.4563      1.5283      1.5999      1.6675      1.7271      1.7753    
  1.8092      1.8267      1.8267      1.8092      1.7753      1.7271      1.6675      1.5999      1.5282      1.4563    
  1.3877      1.3258      1.2731      1.2315      1.2021      1.1852      1.1802      1.1858      1.2001      1.2209    
  1.2454      1.2709      1.2950      1.3153      1.3299      1.3375      1.3375      1.3299      1.3153      1.2950    
  1.2709      1.2453      1.2208      1.2001      1.1858      1.1802      1.2033      1.2168      1.2430      1.2813    
  1.3303      1.3877      1.4507      1.5157      1.5791      1.6372      1.6865      1.7241      1.7475      1.7555    
  1.7475      1.7241      1.6865      1.6372      1.5791      1.5157      1.4507      1.3877      1.3303      1.2813    
  1.2429      1.2167      1.2032      1.2021      1.2122      1.2318      1.2584      1.2892      1.3216      1.3525    
  1.3795      1.4005      1.4137      1.4182      1.4137      1.4005      1.3795      1.3525      1.3216      1.2892    
  1.2583      1.2318      1.2122      1.2021      1.2140      1.2240      1.2468      1.2813      1.3258      1.3777    
  1.4339      1.4908      1.5450      1.5931      1.6320      1.6593      1.6735      1.6735      1.6593      1.6320    
  1.5931      1.5450      1.4908      1.4338      1.3777      1.3258      1.2813      1.2467      1.2240      1.2139    
  1.2167      1.2315      1.2565      1.2895      1.3276      1.3679      1.4071      1.4424      1.4713      1.4917    
  1.5023      1.5023      1.4917      1.4713      1.4424      1.4071      1.3679      1.3276      1.2895      1.2565    
  1.2315      1.2168      1.2176      1.2240      1.2430      1.2731      1.3122      1.3576      1.4060      1.4541    
  1.4987      1.5368      1.5659      1.5842      1.5904      1.5842      1.5659      1.5368      1.4987      1.4541    
  1.4060      1.3575      1.3122      1.2731      1.2429      1.2240      1.2175      1.2240      1.2429      1.2731    
  1.3122      1.3575      1.4060      1.4541      1.4987      1.5368      1.5659      1.5842      1.5904      1.5842    
  1.5659      1.5368      1.4987      1.4541      1.4060      1.3576      1.3122      1.2731      1.2430      1.2240    
  1.2140      1.2168      1.2315      1.2565      1.2895      1.3276      1.3679      1.4071      1.4424      1.4713    
  1.4917      1.5023      1.5023      1.4917      1.4713      1.4424      1.4071      1.3679      1.3276      1.2895    
  1.2565      1.2315      1.2167      1.2139      1.2240      1.2467      1.2813      1.3258      1.3777      1.4338    
  1.4908      1.5450      1.5931      1.6320      1.6593      1.6735      1.6735      1.6593      1.6320      1.5931    
  1.5450      1.4908      1.4339      1.3777      1.3258      1.2813      1.2468      1.2240      1.2033      1.2021    
  1.2122      1.2318      1.2583      1.2892      1.3216      1.3525      1.3795      1.4005      1.4137      1.4182    
  1.4137      1.4005      1.3795      1.3525      1.3216      1.2892      1.2584      1.2318      1.2122      1.2021    
  1.2032      1.2167      1.2429      1.2813      1.3303      1.3877      1.4507      1.5157      1.5791      1.6372    
  1.6865      1.7241      1.7475      1.7555      1.7475      1.7241      1.6865      1.6372      1.5791      1.5157    
  1.4507      1.3877      1.3303      1.2813      1.2430      1.2168      1.1852      1.1802      1.1858      1.2001    
  1.2208      1.2453      1.2709      1.2950      1.3153      1.3299      1.3375      1.3375      1.3299      1.3153    
  1.2950      1.2709      1.2454      1.2209      1.2001      1.1858      1.1802      1.1852      1.2021      1.2315    
  1.2731      1.3258      1.3877      1.4563      1.5282      1.5999      1.6675      1.7271      1.7753      1.8092    
  1.8267      1.8267      1.8092      1.7753      1.7271      1.6675      1.5999      1.5283      1.4563      1.3877    
  1.3258      1.2731      1.2315      1.2021      1.1604      1.1522      1.1544      1.1648      1.1813      1.2012    
  1.2220      1.2412      1.2566      1.2665      1.2699      1.2665      1.2566      1.2412      1.2220      1.2012    
  1.1813      1.1648      1.1544      1.1523      1.1604      1.1802      1.2122      1.2565      1.3122      1.3777    
  1.4507      1.5282      1.6069      1.6829      1.7521      1.8109      1.8556      1.8837      1.8932      1.8837    
  1.8556      1.8109      1.7521      1.6829      1.6069      1.5283      1.4507      1.3777      1.3122      1.2565    
  1.2122      1.1802      1.1312      1.1217      1.1226      1.1317      1.1466      1.1647      1.1833      1.1999    
  1.2123      1.2189      1.2188      1.2122      1.1999      1.1833      1.1647      1.1466      1.1317      1.1226    
  1.1217      1.1312      1.1523      1.1858      1.2318      1.2895      1.3575      1.4338      1.5157      1.5999    
  1.6829      1.7606      1.8291      1.8845      1.9235      1.9436      1.9436      1.9235      1.8845      1.8291    
  1.7606      1.6829      1.5999      1.5157      1.4338      1.3575      1.2895      1.2317      1.1858      1.1522    
  1.1022      1.0948      1.0980      1.1096      1.1269      1.1468      1.1664      1.1828      1.1936      1.1974    
  1.1936      1.1827      1.1664      1.1468      1.1268      1.1096      1.0980      1.0948      1.1022      1.1217    
  1.1544      1.2001      1.2584      1.3276      1.4060      1.4908      1.5791      1.6675      1.7521      1.8291    
  1.8942      1.9440      1.9751      1.9858      1.9751      1.9440      1.8942      1.8291      1.7521      1.6675    
  1.5791      1.4908      1.4060      1.3276      1.2583      1.2001      1.1544      1.1217      1.0813      1.0810    
  1.0920      1.1116      1.1365      1.1630      1.1873      1.2057      1.2157      1.2157      1.2057      1.1872    
  1.1630      1.1365      1.1116      1.0919      1.0809      1.0813      1.0948      1.1226      1.1648      1.2209    
  1.2892      1.3679      1.4541      1.5450      1.6372      1.7271      1.8109      1.8845      1.9440      1.9859    
  2.0075      2.0075      1.9859      1.9440      1.8845      1.8109      1.7271      1.6372      1.5450      1.4541    
  1.3679      1.2892      1.2209      1.1648      1.1226      1.0948      1.0803      1.0946      1.1214      1.1572    
  1.1974      1.2368      1.2700      1.2922      1.3000      1.2922      1.2700      1.2368      1.1974      1.1571    
  1.1213      1.0945      1.0802      1.0809      1.0980      1.1317      1.1813      1.2454      1.3216      1.4071    
  1.4987      1.5931      1.6865      1.7753      1.8556      1.9235      1.9751      2.0075      2.0186      2.0075    
  1.9751      1.9235      1.8556      1.7753      1.6865      1.5931      1.4987      1.4071      1.3216      1.2454    
  1.1813      1.1317      1.0980      1.0810      1.1170      1.1576      1.2129      1.2778      1.3450      1.4063    
  1.4531      1.4786      1.4786      1.4532      1.4063      1.3450      1.2777      1.2129      1.1575      1.1169    
  1.0945      1.0919      1.1096      1.1466      1.2012      1.2709      1.3525      1.4424      1.5368      1.6320    
  1.7241      1.8092      1.8837      1.9436      1.9858      2.0075      2.0075      1.9858      1.9436      1.8837    
  1.8092      1.7241      1.6320      1.5368      1.4424      1.3525      1.2709      1.2012      1.1466      1.1096    
  1.0920      1.0946      1.2201      1.3068      1.4122      1.5273      1.6397      1.7349      1.7988      1.8214    
  1.7989      1.7349      1.6398      1.5274      1.4122      1.3068      1.2201      1.1575      1.1213      1.1116    
  1.1268      1.1647      1.2220      1.2950      1.3795      1.4713      1.5659      1.6593      1.7475      1.8267    
  1.8932      1.9436      1.9751      1.9859      1.9751      1.9436      1.8932      1.8267      1.7475      1.6593    
  1.5659      1.4713      1.3795      1.2950      1.2220      1.1647      1.1269      1.1116      1.1214      1.1576    
  1.4394      1.6070      1.7996      1.9999      2.1887      2.3438      2.4329      2.4329      2.3438      2.1888    
  2.0000      1.7997      1.6071      1.4394      1.3068      1.2129      1.1571      1.1365      1.1468      1.1833    
  1.2412      1.3153      1.4005      1.4917      1.5842      1.6735      1.7555      1.8267      1.8837      1.9235    
  1.9440      1.9440      1.9235      1.8837      1.8267      1.7555      1.6735      1.5842      1.4917      1.4005    
  1.3153      1.2412      1.1834      1.1468      1.1365      1.1572      1.2129      1.3068      1.8634      2.1774    
  2.5680      3.0192      3.4548      3.7732      3.8901      3.7732      3.4549      3.0193      2.5681      2.1775    
  1.8634      1.6071      1.4122      1.2777      1.1974      1.1630      1.1664      1.1999      1.2566      1.3299    
  1.4137      1.5023      1.5904      1.6735      1.7475      1.8092      1.8556      1.8845      1.8942      1.8845    
  1.8556      1.8092      1.7475      1.6735      1.5904      1.5023      1.4137      1.3299      1.2566      1.1999    
  1.1664      1.1630      1.1974      1.2777      1.4122      1.6070      2.7377      3.5477      4.5554      5.6025    
  6.4747      6.9710      6.9710      6.4747      5.6026      4.5555      3.5477      2.7378      2.1775      1.7997    
  1.5274      1.3450      1.2368      1.1872      1.1827      1.2122      1.2665      1.3375      1.4182      1.5023    
  1.5842      1.6593      1.7241      1.7753      1.8109      1.8291      1.8291      1.8109      1.7753      1.7241    
  1.6593      1.5842      1.5023      1.4182      1.3375      1.2665      1.2123      1.1828      1.1872      1.2368    
  1.3450      1.5273      1.7996      2.1774      5.0402      6.9653      9.0691      10.984      12.326      12.809    
  12.326      10.984      9.0691      6.9654      5.0402      3.5477      2.5681      2.0000      1.6398      1.4063    
  1.2700      1.2057      1.1936      1.2188      1.2699      1.3375      1.4137      1.4917      1.5659      1.6320    
  1.6865      1.7271      1.7521      1.7606      1.7521      1.7271      1.6865      1.6320      1.5659      1.4917    
  1.4137      1.3375      1.2700      1.2189      1.1936      1.2057      1.2700      1.4063      1.6397      1.9999    
  2.5680      3.5477      10.170      13.828      17.394      20.243      21.827      21.827      20.243      17.395    
  13.828      10.170      6.9654      4.5555      3.0193      2.1888      1.7349      1.4532      1.2922      1.2157    
  1.1974      1.2189      1.2665      1.3299      1.4005      1.4713      1.5368      1.5931      1.6372      1.6675    
  1.6829      1.6829      1.6675      1.6372      1.5931      1.5368      1.4713      1.4005      1.3299      1.2665    
  1.2189      1.1974      1.2157      1.2922      1.4531      1.7349      2.1887      3.0192      4.5554      6.9653    
  19.491      25.344      30.481      34.004      35.259      34.004      30.481      25.344      19.491      13.828    
  9.0691      5.6026      3.4549      2.3438      1.7989      1.4786      1.3000      1.2157      1.1936      1.2123    
  1.2566      1.3153      1.3795      1.4424      1.4987      1.5450      1.5791      1.5999      1.6069      1.5999    
  1.5791      1.5450      1.4987      1.4424      1.3795      1.3153      1.2566      1.2123      1.1936      1.2157    
  1.3000      1.4785      1.7988      2.3438      3.4548      5.6025      9.0690      13.828      34.003      42.189    
  48.603      52.132      52.132      48.603      42.189      34.003      25.344      17.395      10.984      6.4747    
  3.7732      2.4329      1.8214      1.4786      1.2922      1.2057      1.1828      1.1999      1.2412      1.2950    
  1.3525      1.4071      1.4541      1.4908      1.5157      1.5283      1.5283      1.5157      1.4908      1.4541    
  1.4071      1.3525      1.2950      1.2412      1.1999      1.1828      1.2057      1.2922      1.4785      1.8214    
  2.4329      3.7732      6.4746      10.983      17.394      25.344      53.981      64.159      71.074      73.525    
  71.074      64.159      53.981      42.189      30.481      20.243      12.326      6.9710      3.8901      2.4329    
  1.7988      1.4531      1.2700      1.1873      1.1664      1.1833      1.2220      1.2709      1.3216      1.3679    
  1.4060      1.4339      1.4507      1.4563      1.4507      1.4338      1.4060      1.3679      1.3216      1.2709    
  1.2220      1.1834      1.1664      1.1872      1.2700      1.4531      1.7988      2.4329      3.8901      6.9710    
  12.326      20.243      30.480      42.189      78.660      89.926      96.095      96.095      89.926      78.661    
  64.159      48.603      34.004      21.827      12.809      6.9710      3.7732      2.3438      1.7349      1.4063    
  1.2368      1.1630      1.1468      1.1647      1.2012      1.2453      1.2892      1.3276      1.3576      1.3777    
  1.3877      1.3877      1.3777      1.3575      1.3276      1.2892      1.2454      1.2012      1.1647      1.1468    
  1.1630      1.2368      1.4063      1.7349      2.3438      3.7732      6.9710      12.809      21.827      34.004    
  48.603      64.159      106.08      117.01      120.87      117.01      106.08      89.926      71.074      52.132    
  35.259      21.827      12.326      6.4747      3.4548      2.1887      1.6397      1.3450      1.1974      1.1365    
  1.1269      1.1466      1.1813      1.2208      1.2583      1.2895      1.3122      1.3258      1.3303      1.3258    
  1.3122      1.2895      1.2583      1.2209      1.1813      1.1466      1.1269      1.1365      1.1974      1.3450    
  1.6397      2.1887      3.4548      6.4746      12.326      21.827      35.259      52.132      71.074      89.926    
  133.19      142.04      142.04      133.19      117.01      96.095      73.526      52.132      34.004      20.243    
  10.984      5.6025      3.0192      1.9999      1.5273      1.2778      1.1572      1.1116      1.1096      1.1317    
  1.1648      1.2001      1.2318      1.2565      1.2731      1.2813      1.2813      1.2731      1.2565      1.2317    
  1.2001      1.1648      1.1317      1.1096      1.1116      1.1572      1.2777      1.5273      1.9999      3.0192    
  5.6025      10.983      20.243      34.004      52.132      73.525      96.095      117.01      156.33      161.38    
  156.33      142.04      120.87      96.095      71.074      48.603      30.481      17.394      9.0691      4.5554    
  2.5680      1.7996      1.4122      1.2129      1.1214      1.0920      1.0980      1.1226      1.1544      1.1858    
  1.2122      1.2315      1.2430      1.2468      1.2430      1.2315      1.2122      1.1858      1.1544      1.1226    
  1.0980      1.0920      1.1214      1.2129      1.4122      1.7996      2.5680      4.5554      9.0690      17.394    
  30.480      48.603      71.074      96.095      120.87      142.04      171.95      171.95      161.38      142.04    
  117.01      89.926      64.159      42.189      25.344      13.828      6.9653      3.5477      2.1774      1.6070    
  1.3068      1.1576      1.0946      1.0810      1.0948      1.1217      1.1522      1.1802      1.2021      1.2168    
  1.2240      1.2240      1.2168      1.2021      1.1802      1.1522      1.1217      1.0948      1.0810      1.0946    
  1.1576      1.3068      1.6070      2.1774      3.5477      6.9653      13.828      25.344      42.189      64.159    
  89.926      117.01      142.04      161.38      171.95      161.38      142.04      117.01      89.926      64.159    
  42.189      25.344      13.828      6.9653      3.5477      2.1774      1.6070      1.3068      1.1576      1.0946    
  1.0810      1.0948      1.1217      1.1522      1.1802      1.2021      1.2168      1.2240      1.2240      1.2168    
  1.2021      1.1802      1.1522      1.1217      1.0948      1.0810      1.0946      1.1576      1.3068      1.6070    
  2.1774      3.5477      6.9653      13.828      25.344      42.189      64.159      89.926      117.01      142.04    
  161.38      171.95      161.38      146.66      124.86      99.323      73.525      50.338      31.613      18.064    
  9.4156      4.7021      2.6124      1.8090      1.4078      1.1999      1.1024      1.0684      1.0706      1.0918    
  1.1206      1.1495      1.1739      1.1917      1.2023      1.2058      1.2023      1.1917      1.1739      1.1495    
  1.1206      1.0917      1.0706      1.0684      1.1024      1.1999      1.4078      1.8090      2.6124      4.7021    
  9.4157      18.064      31.613      50.338      73.525      99.323      124.86      146.66      161.38      166.59    
  142.04      124.86      102.65      78.660      55.889      36.552      21.820      11.850      6.0046      3.1613    
  2.0342      1.5281      1.2585      1.1246      1.0691      1.0589      1.0739      1.1008      1.1307      1.1579    
  1.1792      1.1934      1.2005      1.2005      1.1934      1.1792      1.1579      1.1307      1.1008      1.0739    
  1.0589      1.0691      1.1246      1.2585      1.5281      2.0342      3.1613      6.0046      11.850      21.820    
  36.552      55.890      78.660      102.65      124.86      142.04      151.42      151.42      117.01      99.323    