unknown system                          
   1.00000000000000     
     0.000004    2.028818    2.028818
     2.028818    0.000004    2.028818
     2.028818    2.028818    0.000004
   Li   F 
     1     1
Direct
  0.000000  0.000000  1.000000
  0.500000  0.500000  0.500000
 
   48   48   48
 0.17747156950E+03 0.17194969637E+03 0.15632917865E+03 0.13319013703E+03 0.10607807280E+03
 0.78660428812E+02 0.53981168902E+02 0.34003120206E+02 0.19490942433E+02 0.10169763342E+02
 0.50401553871E+01 0.27376728890E+01 0.18633705022E+01 0.14394119657E+01 0.12201377064E+01
 0.11170020662E+01 0.10803112104E+01 0.10813123557E+01 0.11021876696E+01 0.11311548855E+01
 0.11603938276E+01 0.11851856318E+01 0.12032696212E+01 0.12140268660E+01 0.12175700534E+01
 0.12140268527E+01 0.12032695956E+01 0.11851855953E+01 0.11603937813E+01 0.11311548292E+01
 0.11021876009E+01 0.10813122690E+01 0.10803110960E+01 0.11170019075E+01 0.12201374742E+01
 0.14394116069E+01 0.18633699210E+01 0.27376716266E+01 0.50401522845E+01 0.10169757126E+02
 0.19490931995E+02 0.34003104917E+02 0.53981148931E+02 0.78660405358E+02 0.10607804812E+03
 0.13319011420E+03 0.15632916099E+03 0.17194968672E+03 0.17194969782E+03 0.16138290227E+03
 0.14203567732E+03 0.11700544511E+03 0.89925921746E+02 0.64158808886E+02 0.42189017044E+02
 0.25344312651E+02 0.13827854827E+02 0.69652976754E+01 0.35476606992E+01 0.21774148222E+01
 0.16070166277E+01 0.13067905499E+01 0.11575680261E+01 0.10945776752E+01 0.10810145990E+01
 0.10948174571E+01 0.11217477883E+01 0.11522438726E+01 0.11801599338E+01 0.12021165896E+01
 0.12167930553E+01 0.12240414249E+01 0.12240429106E+01 0.12167966481E+01 0.12021201507E+01
 0.11801611887E+01 0.11522416657E+01 0.11217428108E+01 0.10948120419E+01 0.10810116224E+01
 0.10945790603E+01 0.11575735904E+01 0.13067978579E+01 0.16070221061E+01 0.21774159427E+01
 0.35476598702E+01 0.69653025705E+01 0.13827876905E+02 0.25344364172E+02 0.42189106717E+02
 0.64158937503E+02 0.89926079420E+02 0.11700561151E+03 0.14203582541E+03 0.16138300477E+03
 0.17194973448E+03 0.15632918137E+03 0.14203567859E+03 0.12087202256E+03 0.96094960317E+02
 0.71073614231E+02 0.48603011797E+02 0.30480416726E+02 0.17394395090E+02 0.90690285497E+01
 0.45554018034E+01 0.25680043395E+01 0.17996103546E+01 0.14121868349E+01 0.12129008970E+01
 0.11213738042E+01 0.10920093141E+01 0.10980370788E+01 0.11225908412E+01 0.11543588163E+01
 0.11857660074E+01 0.12122186052E+01 0.12315027732E+01 0.12429965278E+01 0.12467909327E+01
 0.12430015087E+01 0.12315098269E+01 0.12122234480E+01 0.11857652873E+01 0.11543520350E+01
 0.11225808806E+01 0.10980289715E+01 0.10920077546E+01 0.11213805756E+01 0.12129135561E+01
 0.14121995506E+01 0.17996168889E+01 0.25680035305E+01 0.45554039166E+01 0.90690523922E+01
 0.17394463957E+02 0.30480551308E+02 0.48603221701E+02 0.71073890950E+02 0.96095274646E+02
 0.12087232834E+03 0.14203592265E+03 0.15632931703E+03 0.16138301531E+03 0.13319014064E+03
 0.11700544729E+03 0.96094961247E+02 0.73525115417E+02 0.52131600608E+02 0.34004096196E+02
 0.20243233218E+02 0.10983463662E+02 0.56025332500E+01 0.30192100887E+01 0.19999231184E+01
 0.15273248759E+01 0.12777358522E+01 0.11571622544E+01 0.11116205945E+01 0.11096267365E+01
 0.11316884438E+01 0.11648230019E+01 0.12001124334E+01 0.12317493218E+01 0.12565068629E+01
 0.12730910465E+01 0.12813149260E+01 0.12813183309E+01 0.12730993012E+01 0.12565151114E+01
 0.12317523796E+01 0.12001076297E+01 0.11648118511E+01 0.11316762224E+01 0.11096200324E+01
 0.11116239122E+01 0.11571753338E+01 0.12777531976E+01 0.15273381249E+01 0.19999256505E+01
 0.30192066603E+01 0.56025429935E+01 0.10983514479E+02 0.20243354658E+02 0.34004309207E+02
 0.52131907192E+02 0.73525492036E+02 0.96095359299E+02 0.11700580193E+03 0.13319038628E+03
 0.14203593206E+03 0.14203584418E+03 0.10607807679E+03 0.89925924374E+02 0.71073615674E+02
 0.52131601164E+02 0.35258996568E+02 0.21827081906E+02 0.12325952419E+02 0.64746438452E+01
 0.34548100325E+01 0.21887053421E+01 0.16397362471E+01 0.13449783696E+01 0.11973989301E+01
 0.11365371964E+01 0.11268873064E+01 0.11466260861E+01 0.11813080477E+01 0.12208502942E+01
 0.12583312021E+01 0.12894829236E+01 0.13121931742E+01 0.13258004053E+01 0.13303129739E+01
 0.13258069517E+01 0.13122025172E+01 0.12894895100E+01 0.12583306212E+01 0.12208417656E+01
 0.11812951669E+01 0.11466153397E+01 0.11268849338E+01 0.11365458391E+01 0.11974157531E+01
 0.13449958352E+01 0.16397456339E+01 0.21887023951E+01 0.34548068242E+01 0.64746656373E+01
 0.12326030486E+02 0.21827244307E+02 0.35259257062E+02 0.52131949910E+02 0.71074015597E+02
 0.89926315827E+02 0.10607839045E+03 0.11700580985E+03 0.12087234461E+03 0.11700563511E+03
 0.78660432687E+02 0.64158811515E+02 0.48603013362E+02 0.34004096964E+02 0.21827082167E+02
 0.12808990380E+02 0.69709913144E+01 0.37731902792E+01 0.23437642428E+01 0.17348944966E+01
 0.14062659528E+01 0.12368243913E+01 0.11630252908E+01 0.11468279400E+01 0.11647474693E+01
 0.12012495388E+01 0.12453584781E+01 0.12892292923E+01 0.13276236185E+01 0.13575440871E+01
 0.13776878360E+01 0.13877441504E+01 0.13877472462E+01 0.13776954003E+01 0.13575518236E+01
 0.13276268599E+01 0.12892254757E+01 0.12453486765E+01 0.12012382383E+01 0.11647405849E+01
 0.11468299102E+01 0.11630366018E+01 0.12368408104E+01 0.14062801105E+01 0.17348994819E+01
 0.23437595564E+01 0.37731928179E+01 0.69710272731E+01 0.12809087536E+02 0.21827260695E+02
 0.34004360077E+02 0.48603341169E+02 0.64159161152E+02 0.78660746076E+02 0.89926322082E+02
 0.96095372552E+02 0.96095294464E+02 0.89926104207E+02 0.53981172272E+02 0.42189019335E+02
 0.30480418116E+02 0.20243233946E+02 0.12325952725E+02 0.69709913996E+01 0.38901317340E+01
 0.24328740947E+01 0.17988438309E+01 0.14531246482E+01 0.12700163202E+01 0.11872491561E+01
 0.11663986186E+01 0.11833525432E+01 0.12220357221E+01 0.12709402404E+01 0.13215640570E+01
 0.13678594436E+01 0.14059701875E+01 0.14338490990E+01 0.14506870280E+01 0.14563030456E+01
 0.14506911086E+01 0.14338550556E+01 0.14059746843E+01 0.13678596685E+01 0.13215591944E+01
 0.12709320568E+01 0.12220279431E+01 0.11833492394E+01 0.11664022851E+01 0.11872593594E+01
 0.12700296129E+01 0.14531359780E+01 0.17988490680E+01 0.24328754189E+01 0.38901463528E+01
 0.69710409335E+01 0.12326056408E+02 0.20243401535E+02 0.30480643867E+02 0.42189279493E+02
 0.53981427918E+02 0.64159165775E+02 0.71074025717E+02 0.73525507646E+02 0.71073911066E+02
 0.64158960337E+02 0.34003122841E+02 0.25344314410E+02 0.17394396140E+02 0.10983464208E+02
 0.64746440798E+01 0.37731903556E+01 0.24328741105E+01 0.18214062955E+01 0.14785477793E+01
 0.12921712268E+01 0.12056976217E+01 0.11827653773E+01 0.11999090986E+01 0.12411960702E+01
 0.12950140351E+01 0.13525214988E+01 0.14070919383E+01 0.14541260057E+01 0.14908138591E+01
 0.15157159151E+01 0.15282506183E+01 0.15282515953E+01 0.15157183663E+01 0.14908165419E+01
 0.14541274328E+01 0.14070910221E+01 0.13525180755E+01 0.12950090600E+01 0.12411913897E+01
 0.11999068621E+01 0.11827672876E+01 0.12057043010E+01 0.12921819660E+01 0.14785608431E+01
 0.18214197811E+01 0.24328900661E+01 0.37732220034E+01 0.64747050238E+01 0.10983563684E+02
 0.17394535046E+02 0.25344482703E+02 0.34003299643E+02 0.42189282668E+02 0.48603348372E+02
 0.52131961392E+02 0.52131922453E+02 0.48603239544E+02 0.42189125481E+02 0.19490944268E+02
 0.13827856005E+02 0.90690292207E+01 0.56025335783E+01 0.34548101646E+01 0.23437642861E+01
 0.17988438460E+01 0.14785477835E+01 0.12999549346E+01 0.12156621698E+01 0.11936084860E+01
 0.12122675725E+01 0.12565803647E+01 0.13152861435E+01 0.13795420213E+01 0.14424124869E+01
 0.14987405744E+01 0.15450231092E+01 0.15791336815E+01 0.15999366520E+01 0.16069181853E+01
 0.15999360232E+01 0.15791328361E+01 0.15450225626E+01 0.14987405197E+01 0.14424125321E+01
 0.13795413051E+01 0.13152838509E+01 0.12565764333E+01 0.12122632305E+01 0.11936062749E+01
 0.12156653082E+01 0.12999661904E+01 0.14785683150E+01 0.17988725685E+01 0.23438003922E+01
 0.34548605713E+01 0.56026036242E+01 0.90691200522E+01 0.13827963429E+02 0.19491058497E+02
 0.25344484705E+02 0.30480648599E+02 0.34004367900E+02 0.35259267812E+02 0.34004322166E+02
 0.30480565333E+02 0.25344377933E+02 0.10169764455E+02 0.69652983451E+01 0.45554021535E+01
 0.30192102434E+01 0.21887054025E+01 0.17348945244E+01 0.14531246601E+01 0.12921712308E+01
 0.12156621705E+01 0.11974007329E+01 0.12188605985E+01 0.12665190306E+01 0.13298976368E+01
 0.14004768384E+01 0.14712880756E+01 0.15368417598E+01 0.15930831060E+01 0.16372281146E+01
 0.16675009940E+01 0.16828717115E+01 0.16828701784E+01 0.16674972029E+01 0.16372240404E+01
 0.15930807714E+01 0.15368420340E+01 0.14712900446E+01 0.14004781495E+01 0.13298957552E+01
 0.12665128738E+01 0.12188517678E+01 0.11973936613E+01 0.12156629426E+01 0.12921854310E+01
 0.14531550963E+01 0.17349398155E+01 0.21887610490E+01 0.30192768878E+01 0.45554792475E+01
 0.69653824164E+01 0.10169849638E+02 0.13827964562E+02 0.17394537867E+02 0.20243406404E+02
 0.21827267641E+02 0.21827252964E+02 0.20243364310E+02 0.17394473684E+02 0.13827885791E+02
 0.50401559514E+01 0.35476610070E+01 0.25680044854E+01 0.19999231866E+01 0.16397362837E+01
 0.14062659707E+01 0.12700163276E+01 0.12056976235E+01 0.11936084855E+01 0.12188605975E+01
 0.12699529371E+01 0.13375408429E+01 0.14137078909E+01 0.14917048896E+01 0.15659410180E+01
 0.16319957457E+01 0.16865322976E+01 0.17271330588E+01 0.17521440045E+01 0.17605877407E+01
 0.17521395769E+01 0.17271263445E+01 0.16865264621E+01 0.16319932902E+01 0.15659423574E+01
 0.14917079412E+01 0.14137089695E+01 0.13375365523E+01 0.12699422497E+01 0.12188461561E+01
 0.11935964328E+01 0.12056958661E+01 0.12700318265E+01 0.14063021180E+01 0.16397914389E+01
 0.19999910146E+01 0.25680806858E+01 0.35477424459E+01 0.50402374814E+01 0.69653829724E+01
 0.90691215337E+01 0.10983566386E+02 0.12326060442E+02 0.12809092760E+02 0.12326036503E+02
 0.10983520713E+02 0.90690582199E+01 0.69653074689E+01 0.27376731191E+01 0.21774149433E+01
 0.17996104255E+01 0.15273249170E+01 0.13449783913E+01 0.12368244011E+01 0.11872491589E+01
 0.11827653762E+01 0.12122675697E+01 0.12665190276E+01 0.13375408409E+01 0.14182315570E+01
 0.15022690865E+01 0.15841711366E+01 0.16593487745E+01 0.17240670887E+01 0.17753443101E+01
 0.18108792726E+01 0.18290641673E+01 0.18290614782E+01 0.18108723952E+01 0.17753362306E+01
 0.17240611077E+01 0.16593468138E+01 0.15841726378E+01 0.15022710635E+01 0.14182298674E+01
 0.13375321978E+01 0.12665029174E+01 0.12122472338E+01 0.11827473649E+01 0.11872415378E+01
 0.12368342473E+01 0.13450095123E+01 0.15273766363E+01 0.17996778236E+01 0.21774912486E+01
 0.27377543477E+01 0.35477426702E+01 0.45554799019E+01 0.56026049094E+01 0.64747070592E+01
 0.69710436973E+01 0.69710305806E+01 0.64746691708E+01 0.56025463768E+01 0.45554068131E+01
 0.35476620740E+01 0.18633706053E+01 0.16070166951E+01 0.14121868763E+01 0.12777358755E+01
 0.11973989411E+01 0.11630252940E+01 0.11663986168E+01 0.11999090939E+01 0.12565803588E+01
 0.13298976309E+01 0.14137078861E+01 0.15022690837E+01 0.15903778917E+01 0.16734576375E+01
 0.17475472106E+01 0.18092340464E+01 0.18556306454E+01 0.18844620023E+01 0.18942436435E+01
 0.18844572194E+01 0.18556228903E+01 0.18092261192E+01 0.17475416049E+01 0.16734553224E+01
 0.15903777047E+01 0.15022680287E+01 0.14137022726E+01 0.13298846489E+01 0.12565595029E+01
 0.11998828919E+01 0.11663723703E+01 0.11630058972E+01 0.11973931640E+01 0.12777486608E+01
 0.14122201421E+01 0.16070689042E+01 0.18634370807E+01 0.21774913276E+01 0.25680809229E+01
 0.30192773886E+01 0.34548614232E+01 0.37732232319E+01 0.38901478957E+01 0.37731945299E+01
 0.34548085134E+01 0.30192081460E+01 0.25680047042E+01 0.21774168109E+01 0.14394120259E+01
 0.13067905889E+01 0.12129009200E+01 0.11571622658E+01 0.11365371995E+01 0.11468279374E+01
 0.11833525369E+01 0.12411960616E+01 0.13152861340E+01 0.14004768290E+01 0.14917048813E+01
 0.15841711303E+01 0.16734576340E+01 0.17555370530E+01 0.18267220960E+01 0.18836613611E+01
 0.19234650540E+01 0.19439563899E+01 0.19439544060E+01 0.19234596612E+01 0.18836540346E+01
 0.18267146833E+01 0.17555310587E+01 0.16734535644E+01 0.15841681214E+01 0.14917007643E+01
 0.14004686659E+01 0.13152711173E+01 0.12411725550E+01 0.11833209663E+01 0.11467912536E+01
 0.11365007175E+01 0.11571328332E+01 0.12128855363E+01 0.13067947451E+01 0.14394381393E+01
 0.16070689446E+01 0.17996779270E+01 0.19999912056E+01 0.21887613633E+01 0.23438008580E+01
 0.24328906780E+01 0.24328761316E+01 0.23437602988E+01 0.21887030989E+01 0.19999262861E+01
 0.17996174611E+01 0.16070226020E+01 0.12201377414E+01 0.11575680476E+01 0.11213738152E+01
 0.11116205973E+01 0.11268873032E+01 0.11647474617E+01 0.12220357114E+01 0.12950140225E+01
 0.13795420078E+01 0.14712880623E+01 0.15659410057E+01 0.16593487642E+01 0.17475472031E+01
 0.18267220920E+01 0.18932080237E+01 0.19436201212E+01 0.19751382570E+01 0.19858669737E+01
 0.19751356686E+01 0.19436151862E+01 0.18932012991E+01 0.18267144900E+01 0.17475398516E+01
 0.16593426104E+01 0.15659362313E+01 0.14712835408E+01 0.13795351108E+01 0.12950010267E+01
 0.12220128546E+01 0.11647124155E+01 0.11268405884E+01 0.11115663687E+01 0.11213195654E+01
 0.11575231007E+01 0.12201108305E+01 0.13067947674E+01 0.14122201986E+01 0.15273767401E+01
 0.16397916024E+01 0.17349400462E+01 0.17988728668E+01 0.18214201377E+01 0.17988494651E+01
 0.17348998965E+01 0.16397460428E+01 0.15273385088E+01 0.14121998975E+01 0.13067981636E+01
 0.11170020858E+01 0.10945776855E+01 0.10920093167E+01 0.11096267329E+01 0.11466260777E+01
 0.12012495266E+01 0.12709402253E+01 0.13525214820E+01 0.14424124692E+01 0.15368417422E+01
 0.16319957291E+01 0.17240670740E+01 0.18092340344E+01 0.18836613526E+01 0.19436201168E+01
 0.19857679918E+01 0.20075417452E+01 0.20075410768E+01 0.19857657270E+01 0.19436157240E+01
 0.18836546153E+01 0.18092256002E+01 0.17240585568E+01 0.16319891508E+01 0.15368384407E+01
 0.14424119200E+01 0.13525206298E+01 0.12709338041E+01 0.12012314798E+01 0.11465917165E+01
 0.11095748856E+01 0.10919436032E+01 0.10945062758E+01 0.11169358151E+01 0.11575231135E+01
 0.12128855680E+01 0.12777487184E+01 0.13450096028E+01 0.14063022462E+01 0.14531552642E+01
 0.14785685195E+01 0.14785610767E+01 0.14531362292E+01 0.14062803664E+01 0.13449960843E+01
 0.12777534313E+01 0.12129137701E+01 0.11575737848E+01 0.10803112201E+01 0.10810146016E+01
 0.10980370754E+01 0.11316884351E+01 0.11813080347E+01 0.12453584616E+01 0.13215640379E+01
 0.14070919173E+01 0.14987405524E+01 0.15930830840E+01 0.16865322765E+01 0.17753442908E+01
 0.18556306288E+01 0.19234650408E+01 0.19751382478E+01 0.20075417406E+01 0.20185885428E+01
 0.20075413043E+01 0.19751364600E+01 0.19234607587E+01 0.18556234766E+01 0.17753353841E+01
 0.16865241843E+01 0.15930788816E+01 0.14987422635E+01 0.14070989996E+01 0.13215726500E+01
 0.12453620046E+01 0.11812989698E+01 0.11316608344E+01 0.10979889894E+01 0.10809493083E+01
 0.10802367709E+01 0.10945062836E+01 0.11213195841E+01 0.11571328662E+01 0.11973932148E+01
 0.12368343188E+01 0.12700319203E+01 0.12921855465E+01 0.12999663245E+01 0.12921821134E+01
 0.12700297671E+01 0.12368409649E+01 0.11974159026E+01 0.11571754753E+01 0.11213807087E+01
 0.10945791870E+01 0.10813123588E+01 0.10948174543E+01 0.11225908331E+01 0.11648229890E+01
 0.12208502772E+01 0.12892292718E+01 0.13678594204E+01 0.14541259804E+01 0.15450230828E+01
 0.16372280880E+01 0.17271330330E+01 0.18108792485E+01 0.18844619810E+01 0.19439563720E+01
 0.19858669599E+01 0.20075410675E+01 0.20075412996E+01 0.19858670370E+01 0.19439548418E+01
 0.18844575685E+01 0.18108719465E+01 0.17271246728E+01 0.16372219963E+01 0.15450228370E+01
 0.14541337069E+01 0.13678743425E+01 0.12892471878E+01 0.12208643234E+01 0.11648255425E+01
 0.11225759350E+01 0.10947828863E+01 0.10812605874E+01 0.10809493136E+01 0.10919436149E+01
 0.11115663884E+01 0.11365007465E+01 0.11630059369E+01 0.11872415891E+01 0.12056959289E+01
 0.12156630158E+01 0.12156653894E+01 0.12057043872E+01 0.11872594474E+01 0.11630366889E+01
 0.11365459237E+01 0.11116239943E+01 0.10920078359E+01 0.10810117059E+01 0.11021876681E+01
 0.11217477814E+01 0.11543588044E+01 0.12001124169E+01 0.12583311814E+01 0.13276235942E+01
 0.14059701603E+01 0.14908138296E+01 0.15791336508E+01 0.16675009629E+01 0.17521439742E+01
 0.18290641387E+01 0.18942436176E+01 0.19439543835E+01 0.19751356503E+01 0.19857657132E+01
 0.19751364509E+01 0.19439548374E+01 0.18942421054E+01 0.18290596028E+01 0.17521368156E+01
 0.16674933402E+01 0.15791289634E+01 0.14908155124E+01 0.14059802254E+01 0.13276414976E+01
 0.12583534971E+01 0.12001335144E+01 0.11543723467E+01 0.11217485458E+01 0.11021730678E+01
 0.10947828903E+01 0.10979889977E+01 0.11095748982E+01 0.11268406056E+01 0.11467912754E+01
 0.11663723969E+01 0.11827473960E+01 0.11935964680E+01 0.11973936996E+01 0.11936063151E+01
 0.11827673284E+01 0.11664023255E+01 0.11468299499E+01 0.11268849736E+01 0.11096200741E+01
 0.10980290179E+01 0.10948120967E+01 0.11311548807E+01 0.11522438626E+01 0.11857659924E+01
 0.12317493021E+01 0.12894828996E+01 0.13575440592E+01 0.14338490679E+01 0.15157158816E+01
 0.15999366171E+01 0.16828716763E+01 0.17605877062E+01 0.18290614454E+01 0.18844571893E+01
 0.19234596346E+01 0.19436151637E+01 0.19436157060E+01 0.19234607454E+01 0.18844575599E+01
 0.18290595987E+01 0.17605827594E+01 0.16828639354E+01 0.15999277534E+01 0.15157085892E+01
 0.14338462925E+01 0.13575480417E+01 0.12894943522E+01 0.12317669927E+01 0.11857868812E+01
 0.11522637589E+01 0.11311694268E+01 0.11217485494E+01 0.11225759417E+01 0.11316608435E+01
 0.11465917274E+01 0.11647124274E+01 0.11833209784E+01 0.11998829038E+01 0.12122472450E+01
 0.12188461661E+01 0.12188517761E+01 0.12122632370E+01 0.11999068669E+01 0.11833492432E+01
 0.11647405891E+01 0.11466153465E+01 0.11316762348E+01 0.11225809022E+01 0.11217428453E+01
 0.11603938201E+01 0.11801599211E+01 0.12122185874E+01 0.12565068402E+01 0.13121931469E+01
 0.13776878046E+01 0.14506869933E+01 0.15282505811E+01 0.16069181467E+01 0.16828701394E+01
 0.17521395387E+01 0.18108723587E+01 0.18556228566E+01 0.18836540044E+01 0.18932012730E+01
 0.18836545938E+01 0.18556234598E+01 0.18108719344E+01 0.17521368079E+01 0.16828639318E+01
 0.16069078224E+01 0.15282364318E+01 0.14506704827E+01 0.13776715089E+01 0.13121803191E+01
 0.12565006398E+01 0.12122211532E+01 0.11801715640E+01 0.11604126313E+01 0.11522637623E+01
 0.11543723529E+01 0.11648255502E+01 0.11812989777E+01 0.12012314864E+01 0.12220128586E+01
 0.12411725553E+01 0.12565594988E+01 0.12665029083E+01 0.12699422356E+01 0.12665128549E+01
 0.12565764105E+01 0.12411913643E+01 0.12220279170E+01 0.12012382142E+01 0.11812951480E+01
 0.11648118410E+01 0.11543520376E+01 0.11522416848E+01 0.11851856220E+01 0.12021165744E+01
 0.12315027527E+01 0.12730910208E+01 0.13258003749E+01 0.13877441158E+01 0.14563030076E+01
 0.15282515549E+01 0.15999359813E+01 0.16674971607E+01 0.17271263031E+01 0.17753361911E+01
 0.18092260825E+01 0.18267146502E+01 0.18267144610E+01 0.18092255758E+01 0.17753353643E+01
 0.17271246577E+01 0.16674933295E+01 0.15999277467E+01 0.15282364287E+01 0.14562792676E+01
 0.13877119239E+01 0.13257624715E+01 0.12730525798E+01 0.12314702693E+01 0.12020960502E+01
 0.11851806358E+01 0.11801715676E+01 0.11857868875E+01 0.12001335219E+01 0.12208643303E+01
 0.12453620088E+01 0.12709338039E+01 0.12950010203E+01 0.13152711035E+01 0.13298846271E+01
 0.13375321677E+01 0.13375365143E+01 0.13298957105E+01 0.13152838012E+01 0.12950090076E+01
 0.12709320048E+01 0.12453486285E+01 0.12208417252E+01 0.12001076009E+01 0.11857652740E+01
 0.11801611941E+01 0.12032696092E+01 0.12167930377E+01 0.12429965047E+01 0.12813148976E+01
 0.13303129406E+01 0.13877472087E+01 0.14506910677E+01 0.15157183231E+01 0.15791327916E+01
 0.16372239957E+01 0.16865264184E+01 0.17240610660E+01 0.17475415661E+01 0.17555310236E+01
 0.17475398206E+01 0.17240585303E+01 0.16865241624E+01 0.16372219789E+01 0.15791289504E+01
 0.15157085801E+01 0.14506704770E+01 0.13877119212E+01 0.13302622369E+01 0.12812524009E+01
 0.12429299296E+01 0.12167323734E+01 0.12032242670E+01 0.12020960540E+01 0.12122211596E+01
 0.12317670004E+01 0.12583535038E+01 0.12892471912E+01 0.13215726477E+01 0.13525206196E+01
 0.13795350910E+01 0.14004686353E+01 0.14137022308E+01 0.14182298148E+01 0.14137089071E+01
 0.14004780792E+01 0.13795412296E+01 0.13525179981E+01 0.13215591189E+01 0.12892254060E+01
 0.12583305615E+01 0.12317523338E+01 0.12122234195E+01 0.12021201423E+01 0.12140268516E+01
 0.12240414048E+01 0.12467909070E+01 0.12813182999E+01 0.13258069160E+01 0.13776953605E+01
 0.14338550126E+01 0.14908164968E+01 0.15450225164E+01 0.15930807252E+01 0.16319932451E+01
 0.16593467708E+01 0.16734552824E+01 0.16734535280E+01 0.16593425781E+01 0.16319891230E+01
 0.15930788583E+01 0.15450228182E+01 0.14908154976E+01 0.14338462814E+01 0.13776715012E+01
 0.13257624667E+01 0.12812523986E+01 0.12467085839E+01 0.12239528396E+01 0.12139447134E+01
 0.12167323772E+01 0.12314702760E+01 0.12565006477E+01 0.12894943591E+01 0.13276415009E+01
 0.13678743393E+01 0.14070989874E+01 0.14424118964E+01 0.14712835043E+01 0.14917007139E+01
 0.15022679645E+01 0.15022709864E+01 0.14917078531E+01 0.14712899483E+01 0.14424124310E+01
 0.14070909202E+01 0.13678595702E+01 0.13276267695E+01 0.12894894316E+01 0.12565150486E+01
 0.12315097827E+01 0.12167966248E+01 0.12175700366E+01 0.12240428882E+01 0.12430014807E+01
 0.12730992681E+01 0.13122024795E+01 0.13575517822E+01 0.14059746399E+01 0.14541273866E+01
 0.14987404726E+01 0.15368419871E+01 0.15659423118E+01 0.15841725944E+01 0.15903776643E+01
 0.15841680847E+01 0.15659361987E+01 0.15368384124E+01 0.14987422395E+01 0.14541336871E+01
 0.14059802095E+01 0.13575480293E+01 0.13121803097E+01 0.12730525731E+01 0.12429299253E+01
 0.12239528375E+01 0.12174731587E+01 0.12239528435E+01 0.12429299365E+01 0.12730525880E+01
 0.13121803262E+01 0.13575480451E+01 0.14059802219E+01 0.14541336935E+01 0.14987422374E+01
 0.15368383999E+01 0.15659361743E+01 0.15841680479E+01 0.15903776152E+01 0.15841725341E+01
 0.15659422422E+01 0.15368419107E+01 0.14987403927E+01 0.14541273065E+01 0.14059745633E+01
 0.13575517124E+01 0.13122024197E+01 0.12730992208E+01 0.12430014481E+01 0.12240428715E+01
 0.12140268336E+01 0.12167966235E+01 0.12315097971E+01 0.12565150767E+01 0.12894894711E+01
 0.13276268176E+01 0.13678596237E+01 0.14070909756E+01 0.14424124850E+01 0.14712899979E+01
 0.14917078959E+01 0.15022710204E+01 0.15022679887E+01 0.14917007279E+01 0.14712835083E+01
 0.14424118917E+01 0.14070989755E+01 0.13678743222E+01 0.13276414810E+01 0.12894943387E+01
 0.12565006291E+01 0.12314702610E+01 0.12167323673E+01 0.12139447094E+01 0.12239528414E+01
 0.12467085909E+01 0.12812524093E+01 0.13257624789E+01 0.13776715123E+01 0.14338462888E+01
 0.14908154981E+01 0.15450228092E+01 0.15930788374E+01 0.16319890885E+01 0.16593425290E+01
 0.16734534642E+01 0.16734552048E+01 0.16593466812E+01 0.16319931462E+01 0.15930806203E+01
 0.15450224091E+01 0.14908163909E+01 0.14338549118E+01 0.13776952681E+01 0.13258068350E+01
 0.12813182327E+01 0.12467908554E+01 0.12240413698E+01 0.12032695746E+01 0.12021201245E+01
 0.12122234168E+01 0.12317523441E+01 0.12583305818E+01 0.12892254332E+01 0.13215591497E+01
 0.13525180295E+01 0.13795412587E+01 0.14004781036E+01 0.14137089250E+01 0.14182298252E+01
 0.14137022334E+01 0.14004686301E+01 0.13795350789E+01 0.13525206018E+01 0.13215726260E+01
 0.12892471673E+01 0.12583534799E+01 0.12317669784E+01 0.12122211413E+01 0.12020960405E+01
 0.12032242592E+01 0.12167323713E+01 0.12429299324E+01 0.12812524072E+01 0.13302622445E+01
 0.13877119275E+01 0.14506704790E+01 0.15157085746E+01 0.15791289343E+01 0.16372219497E+01
 0.16865241178E+01 0.17240584690E+01 0.17475397423E+01 0.17555309288E+01 0.17475414567E+01
 0.17240609446E+01 0.16865262884E+01 0.16372238609E+01 0.15791326559E+01 0.15157181907E+01
 0.14506909423E+01 0.13877470936E+01 0.13303128386E+01 0.12813148109E+01 0.12429964349E+01
 0.12167929855E+01 0.11851855729E+01 0.11801611614E+01 0.11857652555E+01 0.12001075938E+01
 0.12208417262E+01 0.12453486344E+01 0.12709320126E+01 0.12950090147E+01 0.13152838053E+01
 0.13298957102E+01 0.13375365087E+01 0.13375321564E+01 0.13298846105E+01 0.13152710822E+01
 0.12950009953E+01 0.12709337765E+01 0.12453619806E+01 0.12208643027E+01 0.12001334967E+01
 0.11857868661E+01 0.11801715510E+01 0.11851806246E+01 0.12020960445E+01 0.12314702681E+01
 0.12730525818E+01 0.13257624745E+01 0.13877119252E+01 0.14562792642E+01 0.15282364172E+01
 0.15999277237E+01 0.16674932921E+01 0.17271246033E+01 0.17753352913E+01 0.18092254835E+01
 0.18267143498E+01 0.18267145216E+01 0.18092259391E+01 0.17753360363E+01 0.17271261409E+01
 0.16674969954E+01 0.15999358172E+01 0.15282513962E+01 0.14563028581E+01 0.13877439790E+01
 0.13258002534E+01 0.12730909166E+01 0.12315026669E+01 0.12021165073E+01 0.11603937579E+01
 0.11522416378E+01 0.11543520029E+01 0.11648118152E+01 0.11812951278E+01 0.12012381966E+01
 0.12220278995E+01 0.12411913450E+01 0.12565763883E+01 0.12665128292E+01 0.12699422065E+01
 0.12665028763E+01 0.12565594646E+01 0.12411725199E+01 0.12220128231E+01 0.12012314520E+01
 0.11812989455E+01 0.11648255213E+01 0.11543723283E+01 0.11522637427E+01 0.11604126171E+01
 0.11801715549E+01 0.12122211484E+01 0.12565006378E+01 0.13121803178E+01 0.13776715056E+01
 0.14506704742E+01 0.15282364146E+01 0.16069077930E+01 0.16828638869E+01 0.17521367446E+01
 0.18108718506E+01 0.18556233546E+01 0.18836544672E+01 0.18932011264E+01 0.18836538403E+01
 0.18556226782E+01 0.18108721703E+01 0.17521393447E+01 0.16828699445E+01 0.16069179555E+01
 0.15282503980E+01 0.14506868221E+01 0.13776876486E+01 0.13121930087E+01 0.12565067212E+01
 0.12122184882E+01 0.11801598412E+01 0.11311548051E+01 0.11217427825E+01 0.11225808484E+01
 0.11316761866E+01 0.11466153007E+01 0.11647405432E+01 0.11833491957E+01 0.11999068170E+01
 0.12122631849E+01 0.12188517225E+01 0.12188461120E+01 0.12122471917E+01 0.11998828525E+01
 0.11833209302E+01 0.11647123830E+01 0.11465916876E+01 0.11316608090E+01 0.11225759128E+01
 0.11217485263E+01 0.11311694094E+01 0.11522637467E+01 0.11857868732E+01 0.12317669872E+01
 0.12894943471E+01 0.13575480343E+01 0.14338462795E+01 0.15157085672E+01 0.15999277185E+01
 0.16828638842E+01 0.17605826886E+01 0.18290595059E+01 0.18844574437E+01 0.19234606056E+01
 0.19436155436E+01 0.19436149810E+01 0.19234594349E+01 0.18844569768E+01 0.18290612247E+01
 0.17605874822E+01 0.16828714541E+01 0.15999364016E+01 0.15157156772E+01 0.14338488785E+01
 0.13575438879E+01 0.12894827483E+01 0.12317491717E+01 0.11857658822E+01 0.11522437711E+01
 0.11021875763E+01 0.10948120132E+01 0.10980289389E+01 0.11096199961E+01 0.11268848940E+01
 0.11468298673E+01 0.11664022396E+01 0.11827672403E+01 0.11936062266E+01 0.11973936130E+01
 0.11935963855E+01 0.11827473196E+01 0.11663723279E+01 0.11467912147E+01 0.11268405534E+01
 0.11095748545E+01 0.10979889621E+01 0.10947828622E+01 0.11021730466E+01 0.11217485303E+01
 0.11543723356E+01 0.12001335058E+01 0.12583534887E+01 0.13276414867E+01 0.14059802088E+01
 0.14908154864E+01 0.15791289244E+01 0.16674932842E+01 0.17521367392E+01 0.18290595032E+01
 0.18942419807E+01 0.19439546870E+01 0.19751362756E+01 0.19857655150E+01 0.19751354324E+01
 0.19439541499E+01 0.18942433732E+01 0.18290638885E+01 0.17521437236E+01 0.16675007173E+01
 0.15791334152E+01 0.14908136086E+01 0.14059699573E+01 0.13276234118E+01 0.12583310205E+01
 0.12001122771E+01 0.11543586838E+01 0.11217476770E+01 0.10813122436E+01 0.10810115928E+01
 0.10920077206E+01 0.11116238738E+01 0.11365457965E+01 0.11630365552E+01 0.11872593092E+01
 0.12057042480E+01 0.12156652535E+01 0.12156628875E+01 0.12056958118E+01 0.11872414858E+01
 0.11630058487E+01 0.11365006732E+01 0.11115663291E+01 0.10919435683E+01 0.10809492779E+01
 0.10812605608E+01 0.10947828668E+01 0.11225759206E+01 0.11648255309E+01 0.12208643122E+01
 0.12892471740E+01 0.13678743230E+01 0.14541336781E+01 0.15450227950E+01 0.16372219371E+01
 0.17271245928E+01 0.18108718426E+01 0.18844574383E+01 0.19439546844E+01 0.19858668525E+01
 0.20075410898E+01 0.20075408354E+01 0.19858667094E+01 0.19439561078E+01 0.18844617084E+01
 0.18108789732E+01 0.17271327605E+01 0.16372278241E+01 0.15450228325E+01 0.14541257478E+01
 0.13678592084E+01 0.12892290817E+01 0.12208501085E+01 0.11648228397E+01 0.11225906996E+01
 0.10948173324E+01 0.10803110691E+01 0.10945790284E+01 0.11213805383E+01 0.11571752908E+01
 0.11974157041E+01 0.12368407555E+01 0.12700295526E+01 0.12921819013E+01 0.12999661229E+01
 0.12921853626E+01 0.12700317594E+01 0.12368341835E+01 0.11973931052E+01 0.11571327803E+01
 0.11213195188E+01 0.10945062354E+01 0.10802367361E+01 0.10809492835E+01 0.10979889714E+01
 0.11316608201E+01 0.11812989563E+01 0.12453619887E+01 0.13215726285E+01 0.14070989689E+01
 0.14987422198E+01 0.15930788209E+01 0.16865241029E+01 0.17753352784E+01 0.18556233441E+01
 0.19234605977E+01 0.19751362705E+01 0.20075410874E+01 0.20185883013E+01 0.20075414780E+01
 0.19751379688E+01 0.19234647506E+01 0.18556303331E+01 0.17753439958E+01 0.16865319881E+01
 0.15930828077E+01 0.14987402930E+01 0.14070916781E+01 0.13215638203E+01 0.12453582653E+01
 0.11813078572E+01 0.11316882726E+01 0.10980369226E+01 0.10810144527E+01 0.11170018775E+01
 0.11575735538E+01 0.12129135119E+01 0.12777531448E+01 0.13449957730E+01 0.14062800388E+01
 0.14531358978E+01 0.14785607560E+01 0.14785682239E+01 0.14531550046E+01 0.14063020291E+01
 0.13450094294E+01 0.12777485858E+01 0.12128854705E+01 0.11575230442E+01 0.11169357672E+01
 0.10945062432E+01 0.10919435807E+01 0.11095748687E+01 0.11465917013E+01 0.12012314628E+01
 0.12709337817E+01 0.13525205984E+01 0.14424118760E+01 0.15368383802E+01 0.16319890699E+01
 0.17240584519E+01 0.18092254685E+01 0.18836544546E+01 0.19436155336E+01 0.19857655078E+01
 0.20075408309E+01 0.20075414759E+01 0.19857677033E+01 0.19436198144E+01 0.18836610421E+01
 0.18092337219E+01 0.17240667659E+01 0.16319954313E+01 0.15368414598E+01 0.14424122059E+01
 0.13525212397E+01 0.12709400035E+01 0.12012493225E+01 0.11466258869E+01 0.11096265491E+01