   2   2   0   0
  0.8350800E+01  0.2869182E-09  0.2869182E-09  0.2869182E-09  0.5000000E-15
  1.000000000000000E-004
  CAR 
 unknown system                          
     42.40701475    -46.14565462  301     -0.90999935      1.00000000
    -46.146  0.0000E+00  0.0000E+00
    -45.850  0.0000E+00  0.0000E+00
    -45.555  0.0000E+00  0.0000E+00
    -45.260  0.0000E+00  0.0000E+00
    -44.965  0.0000E+00  0.0000E+00
    -44.670  0.0000E+00  0.0000E+00
    -44.375  0.0000E+00  0.0000E+00
    -44.079  0.0000E+00  0.0000E+00
    -43.784  0.0000E+00  0.0000E+00
    -43.489  0.0000E+00  0.0000E+00
    -43.194  0.0000E+00  0.0000E+00
    -42.899  0.0000E+00  0.0000E+00
    -42.604  0.0000E+00  0.0000E+00
    -42.308  0.0000E+00  0.0000E+00
    -42.013  0.6217E+01  0.2000E+01
    -41.718  0.0000E+00  0.2000E+01
    -41.423  0.0000E+00  0.2000E+01
    -41.128  0.0000E+00  0.2000E+01
    -40.832  0.0000E+00  0.2000E+01
    -40.537  0.0000E+00  0.2000E+01
    -40.242  0.0000E+00  0.2000E+01
    -39.947  0.0000E+00  0.2000E+01
    -39.652  0.0000E+00  0.2000E+01
    -39.357  0.0000E+00  0.2000E+01
    -39.061  0.0000E+00  0.2000E+01
    -38.766  0.0000E+00  0.2000E+01
    -38.471  0.0000E+00  0.2000E+01
    -38.176  0.0000E+00  0.2000E+01
    -37.881  0.0000E+00  0.2000E+01
    -37.586  0.0000E+00  0.2000E+01
    -37.290  0.0000E+00  0.2000E+01
    -36.995  0.0000E+00  0.2000E+01
    -36.700  0.0000E+00  0.2000E+01
    -36.405  0.0000E+00  0.2000E+01
    -36.110  0.0000E+00  0.2000E+01
    -35.815  0.0000E+00  0.2000E+01
    -35.519  0.0000E+00  0.2000E+01
    -35.224  0.0000E+00  0.2000E+01
    -34.929  0.0000E+00  0.2000E+01
    -34.634  0.0000E+00  0.2000E+01
    -34.339  0.0000E+00  0.2000E+01
    -34.043  0.0000E+00  0.2000E+01
    -33.748  0.0000E+00  0.2000E+01
    -33.453  0.0000E+00  0.2000E+01
    -33.158  0.0000E+00  0.2000E+01
    -32.863  0.0000E+00  0.2000E+01
    -32.568  0.0000E+00  0.2000E+01
    -32.272  0.0000E+00  0.2000E+01
    -31.977  0.0000E+00  0.2000E+01
    -31.682  0.0000E+00  0.2000E+01
    -31.387  0.0000E+00  0.2000E+01
    -31.092  0.0000E+00  0.2000E+01
    -30.797  0.0000E+00  0.2000E+01
    -30.501  0.0000E+00  0.2000E+01
    -30.206  0.0000E+00  0.2000E+01
    -29.911  0.0000E+00  0.2000E+01
    -29.616  0.0000E+00  0.2000E+01
    -29.321  0.0000E+00  0.2000E+01
    -29.025  0.0000E+00  0.2000E+01
    -28.730  0.0000E+00  0.2000E+01
    -28.435  0.0000E+00  0.2000E+01
    -28.140  0.0000E+00  0.2000E+01
    -27.845  0.0000E+00  0.2000E+01
    -27.550  0.0000E+00  0.2000E+01
    -27.254  0.0000E+00  0.2000E+01
    -26.959  0.0000E+00  0.2000E+01
    -26.664  0.0000E+00  0.2000E+01
    -26.369  0.0000E+00  0.2000E+01
    -26.074  0.0000E+00  0.2000E+01
    -25.779  0.0000E+00  0.2000E+01
    -25.483  0.0000E+00  0.2000E+01
    -25.188  0.0000E+00  0.2000E+01
    -24.893  0.0000E+00  0.2000E+01
    -24.598  0.0000E+00  0.2000E+01
    -24.303  0.0000E+00  0.2000E+01
    -24.007  0.0000E+00  0.2000E+01
    -23.712  0.0000E+00  0.2000E+01
    -23.417  0.0000E+00  0.2000E+01
    -23.122  0.0000E+00  0.2000E+01
    -22.827  0.0000E+00  0.2000E+01
    -22.532  0.0000E+00  0.2000E+01
    -22.236  0.0000E+00  0.2000E+01
    -21.941  0.0000E+00  0.2000E+01
    -21.646  0.0000E+00  0.2000E+01
    -21.351  0.0000E+00  0.2000E+01
    -21.056  0.3304E-02  0.2001E+01
    -20.761  0.5118E+00  0.2316E+01
    -20.465  0.1374E+01  0.3619E+01
    -20.170  0.0000E+00  0.4000E+01
    -19.875  0.0000E+00  0.4000E+01
    -19.580  0.0000E+00  0.4000E+01
    -19.285  0.0000E+00  0.4000E+01
    -18.990  0.0000E+00  0.4000E+01
    -18.694  0.0000E+00  0.4000E+01
    -18.399  0.0000E+00  0.4000E+01
    -18.104  0.0000E+00  0.4000E+01
    -17.809  0.0000E+00  0.4000E+01
    -17.514  0.0000E+00  0.4000E+01
    -17.218  0.0000E+00  0.4000E+01
    -16.923  0.0000E+00  0.4000E+01
    -16.628  0.0000E+00  0.4000E+01
    -16.333  0.0000E+00  0.4000E+01
    -16.038  0.0000E+00  0.4000E+01
    -15.743  0.0000E+00  0.4000E+01
    -15.447  0.0000E+00  0.4000E+01
    -15.152  0.0000E+00  0.4000E+01
    -14.857  0.0000E+00  0.4000E+01
    -14.562  0.0000E+00  0.4000E+01
    -14.267  0.0000E+00  0.4000E+01
    -13.972  0.0000E+00  0.4000E+01
    -13.676  0.0000E+00  0.4000E+01
    -13.381  0.0000E+00  0.4000E+01
    -13.086  0.0000E+00  0.4000E+01
    -12.791  0.0000E+00  0.4000E+01
    -12.496  0.0000E+00  0.4000E+01
    -12.200  0.0000E+00  0.4000E+01
    -11.905  0.0000E+00  0.4000E+01
    -11.610  0.0000E+00  0.4000E+01
    -11.315  0.0000E+00  0.4000E+01
    -11.020  0.0000E+00  0.4000E+01
    -10.725  0.0000E+00  0.4000E+01
    -10.429  0.0000E+00  0.4000E+01
    -10.134  0.0000E+00  0.4000E+01
     -9.839  0.0000E+00  0.4000E+01
     -9.544  0.0000E+00  0.4000E+01
     -9.249  0.0000E+00  0.4000E+01
     -8.954  0.0000E+00  0.4000E+01
     -8.658  0.0000E+00  0.4000E+01
     -8.363  0.0000E+00  0.4000E+01
     -8.068  0.0000E+00  0.4000E+01
     -7.773  0.0000E+00  0.4000E+01
     -7.478  0.0000E+00  0.4000E+01
     -7.182  0.0000E+00  0.4000E+01
     -6.887  0.0000E+00  0.4000E+01
     -6.592  0.0000E+00  0.4000E+01
     -6.297  0.0000E+00  0.4000E+01
     -6.002  0.0000E+00  0.4000E+01
     -5.707  0.0000E+00  0.4000E+01
     -5.411  0.0000E+00  0.4000E+01
     -5.116  0.0000E+00  0.4000E+01
     -4.821  0.0000E+00  0.4000E+01
     -4.526  0.0000E+00  0.4000E+01
     -4.231  0.0000E+00  0.4000E+01
     -3.936  0.3954E-01  0.4017E+01
     -3.640  0.2541E+00  0.4179E+01
     -3.345  0.1052E+01  0.4831E+01
     -3.050  0.5328E+00  0.5450E+01
     -2.755  0.2863E+00  0.5838E+01
     -2.460  0.4350E+00  0.6330E+01
     -2.164  0.4955E+00  0.6819E+01
     -1.869  0.9361E+00  0.7604E+01
     -1.574  0.9935E+00  0.8705E+01
     -1.279  0.8323E+00  0.9731E+01
     -0.984  0.0000E+00  0.1000E+02
     -0.689  0.0000E+00  0.1000E+02
     -0.393  0.0000E+00  0.1000E+02
     -0.098  0.0000E+00  0.1000E+02
      0.197  0.0000E+00  0.1000E+02
      0.492  0.0000E+00  0.1000E+02
      0.787  0.0000E+00  0.1000E+02
      1.082  0.0000E+00  0.1000E+02
      1.378  0.0000E+00  0.1000E+02
      1.673  0.0000E+00  0.1000E+02
      1.968  0.0000E+00  0.1000E+02
      2.263  0.0000E+00  0.1000E+02
      2.558  0.0000E+00  0.1000E+02
      2.853  0.0000E+00  0.1000E+02
      3.149  0.0000E+00  0.1000E+02
      3.444  0.0000E+00  0.1000E+02
      3.739  0.0000E+00  0.1000E+02
      4.034  0.0000E+00  0.1000E+02
      4.329  0.0000E+00  0.1000E+02
      4.625  0.0000E+00  0.1000E+02
      4.920  0.0000E+00  0.1000E+02
      5.215  0.0000E+00  0.1000E+02
      5.510  0.0000E+00  0.1000E+02
      5.805  0.0000E+00  0.1000E+02
      6.100  0.0000E+00  0.1000E+02
      6.396  0.0000E+00  0.1000E+02
      6.691  0.0000E+00  0.1000E+02
      6.986  0.0000E+00  0.1000E+02
      7.281  0.0000E+00  0.1000E+02
      7.576  0.0000E+00  0.1000E+02
      7.871  0.3140E-15  0.1000E+02
      8.167  0.1361E-07  0.1001E+02
      8.462  0.0000E+00  0.1005E+02
      8.757  0.9252E-01  0.1008E+02
      9.052  0.0000E+00  0.1013E+02
      9.347  0.2467E-01  0.1019E+02
      9.643  0.7402E-01  0.1030E+02
      9.938  0.1480E+00  0.1050E+02
     10.233  0.2856E+00  0.1065E+02
     10.528  0.2523E-02  0.1079E+02
     10.823  0.2106E-01  0.1084E+02
     11.118  0.7402E-01  0.1110E+02
     11.414  0.1842E-01  0.1118E+02
     11.709  0.7402E-01  0.1130E+02
     12.004  0.1475E+00  0.1144E+02
     12.299  0.8003E-01  0.1153E+02
     12.594  0.0000E+00  0.1162E+02
     12.889  0.3677E+00  0.1180E+02
     13.185  0.0000E+00  0.1184E+02
     13.480  0.1136E+00  0.1196E+02
     13.775  0.7402E-01  0.1205E+02
     14.070  0.1812E+00  0.1232E+02
     14.365  0.1922E+00  0.1256E+02
     14.661  0.0000E+00  0.1285E+02
     14.956  0.5532E+00  0.1318E+02
     15.251  0.2221E+00  0.1338E+02
     15.546  0.2773E+00  0.1352E+02
     15.841  0.7400E-01  0.1366E+02
     16.136  0.1160E+00  0.1371E+02
     16.432  0.1066E-03  0.1386E+02
     16.727  0.1309E-01  0.1404E+02
     17.022  0.7402E-01  0.1427E+02
     17.317  0.2856E+00  0.1449E+02
     17.612  0.3921E+00  0.1478E+02
     17.907  0.6327E+00  0.1572E+02
     18.203  0.5503E+00  0.1653E+02
     18.498  0.3200E+00  0.1698E+02
     18.793  0.2247E+00  0.1737E+02
     19.088  0.1384E+00  0.1757E+02
     19.383  0.1110E+00  0.1773E+02
     19.678  0.1480E+00  0.1790E+02
     19.974  0.1480E+00  0.1797E+02
     20.269  0.8460E-02  0.1803E+02
     20.564  0.4940E-01  0.1812E+02
     20.859  0.9392E-05  0.1819E+02
     21.154  0.1110E+00  0.1831E+02
     21.450  0.3203E-05  0.1837E+02
     21.745  0.5551E-01  0.1840E+02
     22.040  0.3313E-06  0.1849E+02
     22.335  0.2189E+00  0.1862E+02
     22.630  0.1473E+00  0.1869E+02
     22.925  0.1452E-04  0.1871E+02
     23.221  0.1218E-05  0.1878E+02
     23.516  0.1112E-02  0.1888E+02
     23.811  0.4288E-01  0.1899E+02
     24.106  0.2961E+00  0.1913E+02
     24.401  0.7402E-01  0.1922E+02
     24.696  0.2736E+00  0.1933E+02
     24.992  0.0000E+00  0.1939E+02
     25.287  0.2622E-03  0.1948E+02
     25.582  0.2711E+00  0.1970E+02
     25.877  0.0000E+00  0.1979E+02
     26.172  0.2221E+00  0.1997E+02
     26.468  0.1126E+00  0.2001E+02
     26.763  0.7183E-01  0.2006E+02
     27.058  0.2150E+00  0.2029E+02
     27.353  0.2310E+00  0.2047E+02
     27.648  0.1006E+00  0.2061E+02
     27.943  0.4911E-06  0.2073E+02
     28.239  0.7402E-01  0.2080E+02
     28.534  0.4206E+00  0.2111E+02
     28.829  0.6952E-01  0.2134E+02
     29.124  0.3749E+00  0.2156E+02
     29.419  0.2714E+00  0.2173E+02
     29.714  0.1237E+00  0.2194E+02
     30.010  0.7402E-01  0.2208E+02
     30.305  0.2221E+00  0.2223E+02
     30.600  0.1480E+00  0.2234E+02
     30.895  0.0000E+00  0.2253E+02
     31.190  0.0000E+00  0.2259E+02
     31.486  0.3532E-01  0.2264E+02
     31.781  0.1110E+00  0.2283E+02
     32.076  0.1662E+00  0.2309E+02
     32.371  0.7402E-01  0.2322E+02
     32.666  0.1383E-09  0.2329E+02
     32.961  0.2534E+00  0.2338E+02
     33.257  0.2960E+00  0.2354E+02
     33.552  0.2220E+00  0.2369E+02
     33.847  0.0000E+00  0.2382E+02
     34.142  0.2306E-11  0.2389E+02
     34.437  0.0000E+00  0.2391E+02
     34.732  0.0000E+00  0.2391E+02
     35.028  0.7381E-01  0.2394E+02
     35.323  0.7977E-03  0.2396E+02
     35.618  0.0000E+00  0.2398E+02
     35.913  0.0000E+00  0.2398E+02
     36.208  0.0000E+00  0.2398E+02
     36.504  0.3641E-08  0.2398E+02
     36.799  0.0000E+00  0.2399E+02
     37.094  0.0000E+00  0.2399E+02
     37.389  0.0000E+00  0.2399E+02
     37.684  0.0000E+00  0.2399E+02
     37.979  0.0000E+00  0.2399E+02
     38.275  0.0000E+00  0.2399E+02
     38.570  0.0000E+00  0.2400E+02
     38.865  0.0000E+00  0.2400E+02
     39.160  0.0000E+00  0.2400E+02
     39.455  0.0000E+00  0.2400E+02
     39.750  0.0000E+00  0.2400E+02
     40.046  0.0000E+00  0.2400E+02
     40.341  0.0000E+00  0.2400E+02
     40.636  0.0000E+00  0.2400E+02
     40.931  0.0000E+00  0.2400E+02
     41.226  0.0000E+00  0.2400E+02
     41.521  0.0000E+00  0.2400E+02
     41.817  0.0000E+00  0.2400E+02
     42.112  0.0000E+00  0.2400E+02
     42.407  0.0000E+00  0.2400E+02
