    2    2    1    1
  0.8350800E+01  0.2869182E-09  0.2869182E-09  0.2869182E-09  0.5000000E-15
  1.000000000000000E-004
  CAR 
 unknown system                          
     10   1099     12
 
  0.0000000E+00  0.0000000E+00  0.0000000E+00  0.4551661E-03
    1      -42.120533   1.000000
    2      -21.064470   1.000000
    3       -1.149725   1.000000
    4       -1.149709   1.000000
    5       -1.149709   1.000000
    6        7.745012   0.000000
    7       22.526842   0.000000
    8       22.526895   0.000000
    9       22.526896   0.000000
   10       22.957517   0.000000
   11       22.957602   0.000000
   12       22.957602   0.000000
 
  0.7692308E-01 -0.6938894E-17  0.3515028E-17  0.9103323E-03
    1      -42.117405   1.000000
    2      -21.041452   1.000000
    3       -1.320256   1.000000
    4       -1.163083   1.000000
    5       -1.163069   1.000000
    6        7.925352   0.000000
    7       20.584378   0.000000
    8       21.653196   0.000000
    9       21.653252   0.000000
   10       23.700958   0.000000
   11       23.701022   0.000000
   12       23.804609   0.000000
 
  0.1538462E+00 -0.2775558E-16 -0.6846964E-17  0.9103323E-03
    1      -42.109083   1.000000
    2      -20.978919   1.000000
    3       -1.764937   1.000000
    4       -1.199579   1.000000
    5       -1.199566   1.000000
    6        8.375065   0.000000
    7       18.499036   0.000000
    8       20.513156   0.000000
    9       20.513211   0.000000
   10       24.451038   0.000000
   11       24.651370   0.000000
   12       24.651431   0.000000
 
  0.2307692E+00  0.0000000E+00 -0.2414862E-16  0.9103323E-03
    1      -42.097237   1.000000
    2      -20.887991   1.000000
    3       -2.338630   1.000000
    4       -1.249893   1.000000
    5       -1.249882   1.000000
    6        8.900333   0.000000
    7       16.903223   0.000000
    8       19.436282   0.000000
    9       19.436337   0.000000
   10       25.303117   0.000000
   11       25.784356   0.000000
   12       25.784414   0.000000
 
  0.3076923E+00  0.0000000E+00 -0.1369467E-16  0.9103323E-03
    1      -42.084529   1.000000
    2      -20.787743   1.000000
    3       -2.898167   1.000000
    4       -1.301848   1.000000
    5       -1.301838   1.000000
    6        9.299039   0.000000
    7       15.908741   0.000000
    8       18.550815   0.000000
    9       18.550870   0.000000
   10       26.371776   0.000000
   11       27.095383   0.000000
   12       27.095437   0.000000
 
  0.3846154E+00  0.2775558E-16 -0.4487332E-16  0.9103323E-03
    1      -42.074006   1.000000
    2      -20.702033   1.000000
    3       -3.333524   1.000000
    4       -1.343804   1.000000
    5       -1.343795   1.000000
    6        9.476105   0.000000
    7       15.461096   0.000000
    8       17.929161   0.000000
    9       17.929215   0.000000
   10       27.566562   0.000000
   11       28.419124   0.000000
   12       28.419171   0.000000
 
  0.4615385E+00  0.0000000E+00 -0.4829724E-16  0.9103323E-03
    1      -42.068196   1.000000
    2      -20.653247   1.000000
    3       -3.570370   1.000000
    4       -1.367062   1.000000
    5       -1.367053   1.000000
    6        9.507616   0.000000
    7       15.337898   0.000000
    8       17.609820   0.000000
    9       17.609875   0.000000
   10       28.617040   0.000000
   11       29.354231   0.000000
   12       29.354270   0.000000
 
 -0.1387779E-16  0.7692308E-01 -0.2385589E-17  0.9103323E-03
    1      -42.117405   1.000000
    2      -21.041452   1.000000
    3       -1.320256   1.000000
    4       -1.163083   1.000000
    5       -1.163069   1.000000
    6        7.925352   0.000000
    7       20.584378   0.000000
    8       21.653196   0.000000
    9       21.653252   0.000000
   10       23.700958   0.000000
   11       23.701022   0.000000
   12       23.804609   0.000000
 
  0.7692308E-01  0.7692308E-01 -0.1308931E-17  0.9103323E-03
    1      -42.116451   1.000000
    2      -21.033818   1.000000
    3       -1.302882   1.000000
    4       -1.207005   1.000000
    5       -1.206994   1.000000
    6        7.992627   0.000000
    7       21.124951   0.000000
    8       21.124995   0.000000
    9       21.474850   0.000000
   10       21.668373   0.000000
   11       24.883814   0.000000
   12       24.883863   0.000000
 
  0.1538462E+00  0.7692308E-01 -0.9232553E-17  0.9103323E-03
    1      -42.109905   1.000000
    2      -20.983738   1.000000
    3       -1.642387   1.000000
    4       -1.270577   1.000000
    5       -1.226791   1.000000
    6        8.372785   0.000000
    7       19.080183   0.000000
    8       20.383680   0.000000
    9       20.674403   0.000000
   10       22.092409   0.000000
   11       25.764794   0.000000
   12       25.961269   0.000000
 
  0.2307692E+00  0.7692308E-01 -0.4735089E-16  0.9103323E-03
    1      -42.099228   1.000000
    2      -20.900711   1.000000
    3       -2.171366   1.000000
    4       -1.338316   1.000000
    5       -1.266561   1.000000
    6        8.907455   0.000000
    7       17.298546   0.000000
    8       19.562589   0.000000
    9       19.604661   0.000000
   10       23.096298   0.000000
   11       26.586238   0.000000
   12       26.927913   0.000000
 
  0.3076923E+00  0.7692308E-01 -0.2301918E-16  0.9103323E-03
    1      -42.086859   1.000000
    2      -20.801830   1.000000
    3       -2.729430   1.000000
    4       -1.394280   1.000000
    5       -1.334381   1.000000
    6        9.390082   0.000000
    7       16.079497   0.000000
    8       18.694901   0.000000
    9       18.780107   0.000000
   10       24.324585   0.000000
   11       27.616080   0.000000
   12       27.974188   0.000000
 
  0.3846154E+00  0.7692308E-01 -0.4032009E-16  0.9103323E-03
    1      -42.075640   1.000000
    2      -20.709571   1.000000
    3       -3.198661   1.000000
    4       -1.426027   1.000000
    5       -1.413997   1.000000
    6        9.670038   0.000000
    7       15.435012   0.000000
    8       18.044105   0.000000
    9       18.148581   0.000000
   10       25.708333   0.000000
   11       28.723159   0.000000
   12       29.026912   0.000000
 
  0.4615385E+00  0.7692308E-01 -0.7149943E-16  0.9103323E-03
    1      -42.068273   1.000000
    2      -20.647254   1.000000
    3       -3.495461   1.000000
    4       -1.486583   1.000000
    5       -1.427072   1.000000
    6        9.753972   0.000000
    7       15.202536   0.000000
    8       17.687136   0.000000
    9       17.747326   0.000000
   10       27.133897   0.000000
   11       29.376970   0.000000
   12       29.716572   0.000000
 
 -0.4615385E+00  0.7692308E-01  0.8060614E-16  0.9103323E-03
    1      -42.066287   1.000000
    2      -20.630533   1.000000
    3       -3.570784   1.000000
    4       -1.535519   1.000000
    5       -1.397768   1.000000
    6        9.758887   0.000000
    7       15.156383   0.000000
    8       17.622550   0.000000
    9       17.626249   0.000000
   10       28.390857   0.000000
   11       28.872987   0.000000
   12       29.503453   0.000000
 
 -0.3846154E+00  0.7692308E-01 -0.6084449E-17  0.9103323E-03
    1      -42.070190   1.000000
    2      -20.664216   1.000000
    3       -3.412816   1.000000
    4       -1.549539   1.000000
    5       -1.344716   1.000000
    6        9.730976   0.000000
    7       15.220943   0.000000
    8       17.812479   0.000000
    9       17.827269   0.000000
   10       27.691548   0.000000
   11       28.366534   0.000000
   12       29.054634   0.000000
 
 -0.3076923E+00  0.7692308E-01  0.1824803E-16  0.9103323E-03
    1      -42.079113   1.000000
    2      -20.739354   1.000000
    3       -3.048074   1.000000
    4       -1.524615   1.000000
    5       -1.279361   1.000000
    6        9.585232   0.000000
    7       15.543358   0.000000
    8       18.269535   0.000000
    9       18.314680   0.000000
   10       26.466173   0.000000
   11       26.861705   0.000000
   12       28.709357   0.000000
 
 -0.2307692E+00  0.7692308E-01 -0.1293147E-16  0.9103323E-03
    1      -42.091049   1.000000
    2      -20.836679   1.000000
    3       -2.540094   1.000000
    4       -1.464189   1.000000
    5       -1.215906   1.000000
    6        9.224010   0.000000
    7       16.345700   0.000000
    8       18.894844   0.000000
    9       19.121025   0.000000
   10       25.366724   0.000000
   11       25.402029   0.000000
   12       27.821234   0.000000
 
 -0.1538462E+00  0.7692308E-01 -0.3023234E-16  0.9103323E-03
    1      -42.103136   1.000000
    2      -20.932283   1.000000
    3       -1.989094   1.000000
    4       -1.377086   1.000000
    5       -1.168764   1.000000
    6        8.701309   0.000000
    7       17.702642   0.000000
    8       19.619191   0.000000
    9       20.183054   0.000000
   10       24.184097   0.000000
   11       24.497195   0.000000
   12       26.804335   0.000000
 
 -0.7692308E-01  0.7692308E-01 -0.1977842E-16  0.9103323E-03
    1      -42.112670   1.000000
    2      -21.005564   1.000000
    3       -1.536465   1.000000
    4       -1.268792   1.000000
    5       -1.149385   1.000000
    6        8.201665   0.000000
    7       19.418842   0.000000
    8       20.424106   0.000000
    9       21.310590   0.000000
   10       23.386759   0.000000
   11       23.909073   0.000000
   12       25.600279   0.000000
 
 -0.2775558E-16  0.1538462E+00 -0.1864820E-16  0.9103323E-03
    1      -42.109083   1.000000
    2      -20.978919   1.000000
    3       -1.764937   1.000000
    4       -1.199579   1.000000
    5       -1.199566   1.000000
    6        8.375065   0.000000
    7       18.499036   0.000000
    8       20.513156   0.000000
    9       20.513211   0.000000
   10       24.451038   0.000000
   11       24.651370   0.000000
   12       24.651431   0.000000
 
  0.7692308E-01  0.1538462E+00  0.5683512E-17  0.9103323E-03
    1      -42.109905   1.000000
    2      -20.983738   1.000000
    3       -1.642387   1.000000
    4       -1.270577   1.000000
    5       -1.226791   1.000000
    6        8.372785   0.000000
    7       19.080183   0.000000
    8       20.383680   0.000000
    9       20.674403   0.000000
   10       22.092409   0.000000
   11       25.764793   0.000000
   12       25.961269   0.000000
 
  0.1538462E+00  0.1538462E+00 -0.2614844E-17  0.9103323E-03
    1      -42.105372   1.000000
    2      -20.945654   1.000000
    3       -1.735781   1.000000
    4       -1.364533   1.000000
    5       -1.364520   1.000000
    6        8.693506   0.000000
    7       19.485493   0.000000
    8       20.021405   0.000000
    9       20.021448   0.000000
   10       20.079409   0.000000
   11       27.526684   0.000000
   12       27.526732   0.000000
 
  0.2307692E+00  0.1538462E+00 -0.1504124E-16  0.9103323E-03
    1      -42.096685   1.000000
    2      -20.872899   1.000000
    3       -2.139917   1.000000
    4       -1.459132   1.000000
    5       -1.437325   1.000000
    6        9.223621   0.000000
    7       17.732856   0.000000
    8       19.246230   0.000000
    9       19.523955   0.000000
   10       20.757795   0.000000
   11       28.612150   0.000000
   12       28.670413   0.000000
 
  0.3076923E+00  0.1538462E+00 -0.1846511E-16  0.9103323E-03
    1      -42.085550   1.000000
    2      -20.778830   1.000000
    3       -2.638393   1.000000
    4       -1.533137   1.000000
    5       -1.532748   1.000000
    6        9.793524   0.000000
    7       16.283286   0.000000
    8       18.503901   0.000000
    9       18.958362   0.000000
   10       21.913049   0.000000
   11       29.441928   0.000000
   12       29.468717   0.000000
 
  0.3846154E+00  0.1538462E+00 -0.3576602E-16  0.9103323E-03
    1      -42.074766   1.000000
    2      -20.685463   1.000000
    3       -3.084253   1.000000
    4       -1.666195   1.000000
    5       -1.569278   1.000000
    6       10.222588   0.000000
    7       15.372443   0.000000
    8       17.962141   0.000000
    9       18.418952   0.000000
   10       23.256069   0.000000
   11       30.152435   0.000000
   12       30.230502   0.000000
 
  0.4615385E+00  0.1538462E+00 -0.3918978E-16  0.9103323E-03
    1      -42.066717   1.000000
    2      -20.614750   1.000000
    3       -3.389737   1.000000
    4       -1.807485   1.000000
    5       -1.561218   1.000000
    6       10.418361   0.000000
    7       14.934108   0.000000
    8       17.675542   0.000000
    9       18.002784   0.000000
   10       24.695974   0.000000
   11       30.344540   0.000000
   12       30.571528   0.000000
 
 -0.4615385E+00  0.1538462E+00  0.8516011E-16  0.9103323E-03
    1      -42.063244   1.000000
    2      -20.584996   1.000000
    3       -3.502685   1.000000
    4       -1.921564   1.000000
    5       -1.510621   1.000000
    6       10.446881   0.000000
    7       14.764559   0.000000
    8       17.634531   0.000000
    9       17.785128   0.000000
   10       26.133351   0.000000
   11       29.570991   0.000000
   12       30.175064   0.000000
 
 -0.3846154E+00  0.1538462E+00  0.5398072E-16  0.9103323E-03
    1      -42.065097   1.000000
    2      -20.603918   1.000000
    3       -3.406900   1.000000
    4       -1.978565   1.000000
    5       -1.428510   1.000000
    6       10.388103   0.000000
    7       14.734567   0.000000
    8       17.785625   0.000000
    9       17.815310   0.000000
   10       27.361341   0.000000
   11       28.511452   0.000000
   12       28.887954   0.000000
 
 -0.3076923E+00  0.1538462E+00  0.2280205E-16  0.9103323E-03
    1      -42.071937   1.000000
    2      -20.666884   1.000000
    3       -3.125850   1.000000
    4       -1.958311   1.000000
    5       -1.332798   1.000000
    6       10.196959   0.000000
    7       14.933791   0.000000
    8       18.073666   0.000000
    9       18.117212   0.000000
   10       27.059575   0.000000
   11       27.278322   0.000000
   12       28.526775   0.000000
 
 -0.2307692E+00  0.1538462E+00  0.1937816E-16  0.9103323E-03
    1      -42.082164   1.000000
    2      -20.757286   1.000000
    3       -2.725761   1.000000
    4       -1.848097   1.000000
    5       -1.244911   1.000000
    6        9.793095   0.000000
    7       15.540511   0.000000
    8       18.459370   0.000000
    9       18.683339   0.000000
   10       25.791197   0.000000
   11       26.001300   0.000000
   12       28.689680   0.000000
 
 -0.1538462E+00  0.1538462E+00 -0.1180048E-16  0.9103323E-03
    1      -42.093428   1.000000
    2      -20.852946   1.000000
    3       -2.313900   1.000000
    4       -1.640836   1.000000
    5       -1.185374   1.000000
    6        9.235647   0.000000
    7       16.564658   0.000000
    8       18.933322   0.000000
    9       19.444649   0.000000
   10       24.673722   0.000000
   11       25.104314   0.000000
   12       28.154379   0.000000
 
 -0.7692308E-01  0.1538462E+00 -0.1346557E-17  0.9103323E-03
    1      -42.103136   1.000000
    2      -20.932283   1.000000
    3       -1.989094   1.000000
    4       -1.377086   1.000000
    5       -1.168764   1.000000
    6        8.701309   0.000000
    7       17.702642   0.000000
    8       19.619191   0.000000
    9       20.183054   0.000000
   10       24.184097   0.000000
   11       24.497195   0.000000
   12       26.804335   0.000000
 
 -0.4163336E-16  0.2307692E+00  0.1366063E-16  0.9103323E-03
    1      -42.097237   1.000000
    2      -20.887991   1.000000
    3       -2.338630   1.000000
    4       -1.249893   1.000000
    5       -1.249882   1.000000
    6        8.900333   0.000000
    7       16.903223   0.000000
    8       19.436282   0.000000
    9       19.436337   0.000000
   10       25.303117   0.000000
   11       25.784356   0.000000
   12       25.784414   0.000000
 
  0.7692308E-01  0.2307692E+00  0.1023676E-16  0.9103323E-03
    1      -42.099228   1.000000
    2      -20.900711   1.000000
    3       -2.171366   1.000000
    4       -1.338316   1.000000
    5       -1.266561   1.000000
    6        8.907455   0.000000
    7       17.298546   0.000000
    8       19.562589   0.000000
    9       19.604661   0.000000
   10       23.096298   0.000000
   11       26.586238   0.000000
   12       26.927913   0.000000
 
  0.1538462E+00  0.2307692E+00  0.6813745E-17  0.9103323E-03
    1      -42.096685   1.000000
    2      -20.872899   1.000000
    3       -2.139917   1.000000
    4       -1.459132   1.000000
    5       -1.437325   1.000000
    6        9.223621   0.000000
    7       17.732856   0.000000
    8       19.246230   0.000000
    9       19.523955   0.000000
   10       20.757795   0.000000
   11       28.612150   0.000000
   12       28.670413   0.000000
 
  0.2307692E+00  0.2307692E+00 -0.1800146E-16  0.9103323E-03
    1      -42.090115   1.000000
    2      -20.809697   1.000000
    3       -2.368071   1.000000
    4       -1.583518   1.000000
    5       -1.583505   1.000000
    6        9.755489   0.000000
    7       17.816415   0.000000
    8       18.654599   0.000000
    9       19.343201   0.000000
   10       19.343243   0.000000
   11       30.661515   0.000000
   12       30.661563   0.000000
 
  0.3076923E+00  0.2307692E+00 -0.6973040E-17  0.9103323E-03
    1      -42.081029   1.000000
    2      -20.723929   1.000000
    3       -2.758550   1.000000
    4       -1.708463   1.000000
    5       -1.683376   1.000000
    6       10.379351   0.000000
    7       16.592312   0.000000
    8       18.066674   0.000000
    9       19.040678   0.000000
   10       19.933007   0.000000
   11       31.397656   0.000000
   12       31.836433   0.000000
 
  0.3846154E+00  0.2307692E+00 -0.1733495E-16  0.9103323E-03
    1      -42.071562   1.000000
    2      -20.634546   1.000000
    3       -3.127605   1.000000
    4       -1.886902   1.000000
    5       -1.737381   1.000000
    6       10.950157   0.000000
    7       15.469465   0.000000
    8       17.632555   0.000000
    9       18.668209   0.000000
   10       21.098375   0.000000
   11       31.722567   0.000000
   12       31.965480   0.000000
 
  0.4615385E+00  0.2307692E+00 -0.3463655E-16  0.9103323E-03
    1      -42.063889   1.000000
    2      -20.562619   1.000000
    3       -3.372282   1.000000
    4       -2.109260   1.000000
    5       -1.734532   1.000000
    6       11.314837   0.000000
    7       14.764743   0.000000
    8       17.427374   0.000000
    9       18.306938   0.000000
   10       22.432330   0.000000
   11       31.485926   0.000000
   12       31.893993   0.000000
 
 -0.4615385E+00  0.2307692E+00  0.1452246E-15  0.9103323E-03
    1      -42.059650   1.000000
    2      -20.525693   1.000000
    3       -3.442695   1.000000
    4       -2.325881   1.000000
    5       -1.675538   1.000000
    6       11.418379   0.000000
    7       14.389463   0.000000
    8       17.461956   0.000000
    9       18.038623   0.000000
   10       23.854037   0.000000
   11       30.689165   0.000000
   12       31.380319   0.000000
 
 -0.3846154E+00  0.2307692E+00  0.3022849E-17  0.9103323E-03
    1      -42.059936   1.000000
    2      -20.534340   1.000000
    3       -3.333462   1.000000
    4       -2.476660   1.000000
    5       -1.572682   1.000000
    6       11.315890   0.000000
    7       14.215761   0.000000
    8       17.653631   0.000000
    9       17.925303   0.000000
   10       25.349030   0.000000
   11       29.566480   0.000000
   12       29.979854   0.000000
 
 -0.3076923E+00  0.2307692E+00  0.2735534E-16  0.9103323E-03
    1      -42.064603   1.000000
    2      -20.585720   1.000000
    3       -3.103583   1.000000
    4       -2.486377   1.000000
    5       -1.447941   1.000000
    6       10.997818   0.000000
    7       14.303781   0.000000
    8       17.904688   0.000000
    9       18.002639   0.000000
   10       26.855901   0.000000
   11       28.278167   0.000000
   12       28.295194   0.000000
 
 -0.2307692E+00  0.2307692E+00 -0.3824074E-17  0.9103323E-03
    1      -42.072570   1.000000
    2      -20.666388   1.000000
    3       -2.892077   1.000000
    4       -2.255152   1.000000
    5       -1.329292   1.000000
    6       10.448023   0.000000
    7       14.768935   0.000000
    8       18.166780   0.000000
    9       18.271839   0.000000
   10       26.816315   0.000000
   11       27.016419   0.000000
   12       28.155570   0.000000
 
 -0.1538462E+00  0.2307692E+00  0.4826320E-16  0.9103323E-03
    1      -42.082164   1.000000
    2      -20.757286   1.000000
    3       -2.725761   1.000000
    4       -1.848097   1.000000
    5       -1.244911   1.000000
    6        9.793095   0.000000
    7       15.540511   0.000000
    8       18.459370   0.000000
    9       18.683339   0.000000
   10       25.791197   0.000000
   11       26.001300   0.000000
   12       28.689680   0.000000
 
 -0.7692308E-01  0.2307692E+00  0.4484007E-16  0.9103323E-03
    1      -42.091049   1.000000
    2      -20.836679   1.000000
    3       -2.540094   1.000000
    4       -1.464189   1.000000
    5       -1.215906   1.000000
    6        9.224010   0.000000
    7       16.345700   0.000000
    8       18.894844   0.000000
    9       19.121025   0.000000
   10       25.366724   0.000000
   11       25.402029   0.000000
   12       27.821234   0.000000
 
  0.0000000E+00  0.3076923E+00  0.1821396E-16  0.9103323E-03
    1      -42.084529   1.000000
    2      -20.787743   1.000000
    3       -2.898167   1.000000
    4       -1.301848   1.000000
    5       -1.301838   1.000000
    6        9.299039   0.000000
    7       15.908741   0.000000
    8       18.550815   0.000000
    9       18.550869   0.000000
   10       26.371776   0.000000
   11       27.095383   0.000000
   12       27.095437   0.000000
 
  0.7692308E-01  0.3076923E+00  0.9123074E-18  0.9103323E-03
    1      -42.086859   1.000000
    2      -20.801830   1.000000
    3       -2.729430   1.000000
    4       -1.394280   1.000000
    5       -1.334381   1.000000
    6        9.390082   0.000000
    7       16.079497   0.000000
    8       18.694901   0.000000
    9       18.780107   0.000000
   10       24.324584   0.000000
   11       27.616080   0.000000
   12       27.974188   0.000000
 
  0.1538462E+00  0.3076923E+00  0.1136702E-16  0.9103323E-03
    1      -42.085550   1.000000
    2      -20.778830   1.000000
    3       -2.638393   1.000000
    4       -1.533137   1.000000
    5       -1.532748   1.000000
    6        9.793524   0.000000
    7       16.283286   0.000000
    8       18.503901   0.000000
    9       18.958362   0.000000
   10       21.913049   0.000000
   11       29.441928   0.000000
   12       29.468717   0.000000
 
  0.2307692E+00  0.3076923E+00 -0.1981242E-16  0.9103323E-03
    1      -42.081029   1.000000
    2      -20.723929   1.000000
    3       -2.758550   1.000000
    4       -1.708463   1.000000
    5       -1.683376   1.000000
    6       10.379351   0.000000
    7       16.592312   0.000000
    8       18.066674   0.000000
    9       19.040678   0.000000
   10       19.933006   0.000000
   11       31.397656   0.000000
   12       31.836433   0.000000
 
  0.3076923E+00  0.3076923E+00 -0.5232546E-17  0.9103323E-03
    1      -42.074208   1.000000
    2      -20.647817   1.000000
    3       -3.067267   1.000000
    4       -1.811940   1.000000
    5       -1.811925   1.000000
    6       11.036118   0.000000
    7       16.548009   0.000000
    8       17.573323   0.000000
    9       18.996455   0.000000
   10       18.996496   0.000000
   11       32.742084   0.000000
   12       34.218741   0.000000
 
  0.3846154E+00  0.3076923E+00 -0.2665941E-16  0.9103323E-03
    1      -42.066766   1.000000
    2      -20.567570   1.000000
    3       -3.379138   1.000000
    4       -1.955928   1.000000
    5       -1.891243   1.000000
    6       11.680016   0.000000
    7       15.715712   0.000000
    8       17.167496   0.000000
    9       18.829144   0.000000
   10       19.506510   0.000000
   11       32.330982   0.000000
   12       33.519298   0.000000
 
  0.4615385E+00  0.3076923E+00 -0.4396101E-16  0.9103323E-03
    1      -42.060354   1.000000
    2      -20.501716   1.000000
    3       -3.565952   1.000000
    4       -2.185011   1.000000
    5       -1.905426   1.000000
    6       12.203622   0.000000
    7       14.846307   0.000000
    8       16.965260   0.000000
    9       18.583055   0.000000
   10       20.593827   0.000000
   11       32.029423   0.000000
   12       33.592216   0.000000
 
 -0.4615385E+00  0.3076923E+00  0.9426677E-16  0.9103323E-03
    1      -42.056386   1.000000
    2      -20.466466   1.000000
    3       -3.567372   1.000000
    4       -2.469146   1.000000
    5       -1.851762   1.000000
    6       12.471797   0.000000
    7       14.187306   0.000000
    8       17.048248   0.000000
    9       18.323731   0.000000
   10       21.884968   0.000000
   11       31.861699   0.000000
   12       33.101459   0.000000
 
 -0.3846154E+00  0.3076923E+00  0.1185986E-15  0.9103323E-03
    1      -42.055842   1.000000
    2      -20.471342   1.000000
    3       -3.367350   1.000000
    4       -2.750250   1.000000
    5       -1.740877   1.000000
    6       12.365566   0.000000
    7       13.807116   0.000000
    8       17.339387   0.000000
    9       18.114260   0.000000
   10       23.363912   0.000000
   11       31.099380   0.000000
   12       31.602752   0.000000
 
 -0.3076923E+00  0.3076923E+00  0.8741980E-16  0.9103323E-03
    1      -42.058789   1.000000
    2      -20.514730   1.000000
    3       -2.990150   1.000000
    4       -2.971076   1.000000
    5       -1.595626   1.000000
    6       11.803549   0.000000
    7       13.872596   0.000000
    8       17.662370   0.000000
    9       18.000147   0.000000
   10       25.065736   0.000000
   11       29.647369   0.000000
   12       29.807829   0.000000
 
 -0.2307692E+00  0.3076923E+00  0.7292424E-18  0.9103323E-03
    1      -42.064603   1.000000
    2      -20.585720   1.000000
    3       -3.103583   1.000000
    4       -2.486377   1.000000
    5       -1.447941   1.000000
    6       10.997818   0.000000
    7       14.303781   0.000000
    8       17.904688   0.000000
    9       18.002639   0.000000
   10       26.855901   0.000000
   11       28.278167   0.000000
   12       28.295194   0.000000
 
 -0.1538462E+00  0.3076923E+00 -0.3044941E-16  0.9103323E-03
    1      -42.071937   1.000000
    2      -20.666884   1.000000
    3       -3.125850   1.000000
    4       -1.958311   1.000000
    5       -1.332798   1.000000
    6       10.196959   0.000000
    7       14.933791   0.000000
    8       18.073666   0.000000
    9       18.117212   0.000000
   10       27.059575   0.000000
   11       27.278322   0.000000
   12       28.526775   0.000000
 
 -0.7692308E-01  0.3076923E+00  0.2163780E-16  0.9103323E-03
    1      -42.079113   1.000000
    2      -20.739354   1.000000
    3       -3.048074   1.000000
    4       -1.524615   1.000000
    5       -1.279361   1.000000
    6        9.585232   0.000000
    7       15.543358   0.000000
    8       18.269535   0.000000
    9       18.314680   0.000000
   10       26.466173   0.000000
   11       26.861705   0.000000
   12       28.709357   0.000000
 
 -0.5551115E-16  0.3846154E+00  0.2276803E-16  0.9103323E-03
    1      -42.074006   1.000000
    2      -20.702033   1.000000
    3       -3.333524   1.000000
    4       -1.343804   1.000000
    5       -1.343795   1.000000
    6        9.476105   0.000000
    7       15.461096   0.000000
    8       17.929160   0.000000
    9       17.929215   0.000000
   10       27.566562   0.000000
   11       28.419124   0.000000
   12       28.419171   0.000000
 
  0.7692308E-01  0.3846154E+00  0.1934417E-16  0.9103323E-03
    1      -42.075640   1.000000
    2      -20.709571   1.000000
    3       -3.198661   1.000000
    4       -1.426027   1.000000
    5       -1.413997   1.000000
    6        9.670038   0.000000
    7       15.435012   0.000000
    8       18.044105   0.000000
    9       18.148581   0.000000
   10       25.708333   0.000000
   11       28.723159   0.000000
   12       29.026912   0.000000
 
  0.1538462E+00  0.3846154E+00  0.2043255E-17  0.9103323E-03
    1      -42.074766   1.000000
    2      -20.685463   1.000000
    3       -3.084253   1.000000
    4       -1.666195   1.000000
    5       -1.569278   1.000000
    6       10.222588   0.000000
    7       15.372443   0.000000
    8       17.962141   0.000000
    9       18.418952   0.000000
   10       23.256069   0.000000
   11       30.152435   0.000000
   12       30.230501   0.000000
 
  0.2307692E+00  0.3846154E+00 -0.1380558E-17  0.9103323E-03
    1      -42.071562   1.000000
    2      -20.634546   1.000000
    3       -3.127605   1.000000
    4       -1.886902   1.000000
    5       -1.737381   1.000000
    6       10.950157   0.000000
    7       15.469465   0.000000
    8       17.632555   0.000000
    9       18.668209   0.000000
   10       21.098375   0.000000
   11       31.722567   0.000000
   12       31.965480   0.000000
 
  0.3076923E+00  0.3846154E+00  0.9073417E-17  0.9103323E-03
    1      -42.066766   1.000000
    2      -20.567570   1.000000
    3       -3.379138   1.000000
    4       -1.955928   1.000000
    5       -1.891243   1.000000
    6       11.680016   0.000000
    7       15.715712   0.000000
    8       17.167496   0.000000
    9       18.829144   0.000000
   10       19.506510   0.000000
   11       32.330982   0.000000
   12       33.519298   0.000000
 
  0.3846154E+00  0.3846154E+00 -0.2061636E-16  0.9103323E-03
    1      -42.061498   1.000000
    2      -20.499625   1.000000
    3       -3.668244   1.000000
    4       -1.998065   1.000000
    5       -1.998049   1.000000
    6       12.330407   0.000000
    7       15.697891   0.000000
    8       16.744621   0.000000
    9       18.862544   0.000000
   10       18.862585   0.000000
   11       32.036990   0.000000