unknown system                          
   1.00000000000000     
     0.000004    2.028818    2.028818
     2.028818    0.000004    2.028818
     2.028818    2.028818    0.000004
   Li   F 
     1     1
Direct
  0.000000  0.000000  1.000000
  0.500000  0.500000  0.500000
 
   48   48   48
 -.64997107786E+02 -.63815049459E+02 -.60429129407E+02 -.54945988601E+02 -.47773591999E+02
 -.39781425469E+02 -.31407442397E+02 -.23971875445E+02 -.17685863062E+02 -.11065691686E+02
 -.46980495974E+01 -.51921672703E+00 -.11679615061E+01 -.10729031726E+01 0.58550750004E+00
 0.15242477170E+01 0.25159109703E+01 0.31135207482E+01 0.37993325360E+01 0.41790256265E+01
 0.46409547142E+01 0.48371202975E+01 0.51160556235E+01 0.51511120224E+01 0.52714144544E+01
 0.51511120816E+01 0.51160557211E+01 0.48371204881E+01 0.46409549200E+01 0.41790259693E+01
 0.37993328722E+01 0.31135212969E+01 0.25159114790E+01 0.15242485740E+01 0.58550837669E+00
 -.10729017995E+01 -.11679629181E+01 -.51921544372E+00 -.46980443717E+01 -.11065685923E+02
 -.17685857443E+02 -.23971869763E+02 -.31407435153E+02 -.39781418234E+02 -.47773585193E+02
 -.54945982830E+02 -.60429125492E+02 -.63815047425E+02 -.63815049769E+02 -.61546466748E+02
 -.57040107740E+02 -.50764450407E+02 -.43273286881E+02 -.35037159924E+02 -.27125075729E+02
 -.20538740134E+02 -.14159362297E+02 -.75744626653E+01 -.18796473130E+01 -.46795512269E+00
 -.15569829372E+01 -.94319572335E-01 0.10689434792E+01 0.21029340804E+01 0.28202131589E+01
 0.35059679240E+01 0.39988326568E+01 0.44393547539E+01 0.47501965392E+01 0.49950942188E+01
 0.51510684414E+01 0.52225518237E+01 0.52330076965E+01 0.51394642932E+01 0.50078096974E+01
 0.47386502922E+01 0.44513466371E+01 0.39853289922E+01 0.35188499169E+01 0.28074768363E+01
 0.21156686488E+01 0.10565831169E+01 -.81990035895E-01 -.15689121658E+01 -.45565858474E+00
 -.18932620769E+01 -.75774013427E+01 -.14163281396E+02 -.20535681706E+02 -.27076028676E+02
 -.35083736713E+02 -.43194038922E+02 -.50882017835E+02 -.57096674396E+02 -.61486057310E+02
 -.63813773449E+02 -.60429130030E+02 -.57040108037E+02 -.51818825419E+02 -.45052154079E+02
 -.37311561217E+02 -.29499931966E+02 -.22621349359E+02 -.16512694073E+02 -.99996102392E+01
 -.37937162892E+01 -.35845552024E+00 -.13375528790E+01 -.87492643583E+00 0.70588768309E+00
 0.16271642404E+01 0.25884970932E+01 0.31715172298E+01 0.38499571410E+01 0.42117590181E+01
 0.46765305524E+01 0.48581232589E+01 0.51442824495E+01 0.51661803630E+01 0.52944071999E+01
 0.51676878764E+01 0.51422461879E+01 0.48585215834E+01 0.46739407537E+01 0.42159241896E+01
 0.38473059911E+01 0.31752451685E+01 0.25839898383E+01 0.16319178851E+01 0.69994462369E+00
 -.86845563221E+00 -.13415674553E+01 -.34395825819E+00 -.38402406884E+01 -.10014475712E+02
 -.16523919615E+02 -.22612063150E+02 -.29487249882E+02 -.37345646045E+02 -.45018776021E+02
 -.51853224226E+02 -.57040463916E+02 -.60399804626E+02 -.61486059667E+02 -.54945989463E+02
 -.50764450997E+02 -.45052154341E+02 -.38098552140E+02 -.30891346535E+02 -.23979750846E+02
 -.18188561509E+02 -.11849171485E+02 -.56493382587E+01 -.89124338106E+00 -.84401105951E+00
 -.13862627823E+01 0.25792500926E+00 0.12607944881E+01 0.22898073870E+01 0.29308232129E+01
 0.36278346043E+01 0.40655493709E+01 0.45225216075E+01 0.47923287520E+01 0.50535333447E+01
 0.51801734205E+01 0.52706150679E+01 0.52634406535E+01 0.51877080605E+01 0.50469699741E+01
 0.48014490825E+01 0.45135727954E+01 0.40730259763E+01 0.36182701336E+01 0.29399805694E+01
 0.22809552658E+01 0.12701204698E+01 0.24947940714E+00 -.13805136922E+01 -.85437856220E+00
 -.87926627575E+00 -.56228870492E+01 -.11822147019E+02 -.18191908970E+02 -.23986957085E+02
 -.30881987131E+02 -.38146038224E+02 -.45094763904E+02 -.50861248276E+02 -.54883838401E+02
 -.57040466258E+02 -.57096678643E+02 -.47773593101E+02 -.43273287671E+02 -.37311561675E+02
 -.30891346761E+02 -.24393557740E+02 -.18974275183E+02 -.12950346434E+02 -.69117501347E+01
 -.16729141848E+01 -.43411933236E+00 -.15829886170E+01 -.20633010394E+00 0.96071147064E+00
 0.19968213018E+01 0.27168587406E+01 0.34178522724E+01 0.39154950311E+01 0.43868887405E+01
 0.47022155626E+01 0.49911490805E+01 0.51503433071E+01 0.52806361765E+01 0.52942115740E+01
 0.52792118246E+01 0.51503997339E+01 0.49897124084E+01 0.47026888939E+01 0.43865000955E+01
 0.39172182923E+01 0.34181979257E+01 0.27166432513E+01 0.19966926810E+01 0.95998313435E+00
 -.20345523753E+00 -.15793440893E+01 -.45266336947E+00 -.16986891180E+01 -.69095728225E+01
 -.12947582385E+02 -.18913789339E+02 -.24389034484E+02 -.30849516365E+02 -.37205351841E+02
 -.43284635527E+02 -.47732930536E+02 -.50861250166E+02 -.51853228377E+02 -.50882024084E+02
 -.39781426684E+02 -.35037160817E+02 -.29499932561E+02 -.23979751121E+02 -.18974275304E+02
 -.13410229786E+02 -.75665952954E+01 -.23898131257E+01 -.25838194403E+00 -.15829748746E+01
 -.57210659480E+00 0.70184179234E+00 0.17493126841E+01 0.25218944105E+01 0.32355252675E+01
 0.37722230000E+01 0.42634596107E+01 0.46139100337E+01 0.49246851806E+01 0.51190188091E+01
 0.52723702240E+01 0.53301135228E+01 0.53396108391E+01 0.52652543681E+01 0.51278689707E+01
 0.49157267794E+01 0.46232535820E+01 0.42546036334E+01 0.37792578611E+01 0.32271255161E+01
 0.25291803148E+01 0.17439438493E+01 0.70362562062E+00 -.57770812747E+00 -.15696196088E+01
 -.24602724188E+00 -.23815188998E+01 -.75121082480E+01 -.13429082376E+02 -.18906512310E+02
 -.23999390241E+02 -.29528767576E+02 -.35038800531E+02 -.39832187212E+02 -.43284637303E+02
 -.45094767947E+02 -.45018781753E+02 -.43194046270E+02 -.31407443627E+02 -.27125076591E+02
 -.22621349900E+02 -.18188561900E+02 -.12950346695E+02 -.75665954020E+01 -.25651279651E+01
 -.22372089917E+00 -.14290186580E+01 -.86163098034E+00 0.53570837667E+00 0.15057343036E+01
 0.24014283759E+01 0.30401011238E+01 0.36826297314E+01 0.41152455013E+01 0.45635725920E+01
 0.48270550861E+01 0.51146729258E+01 0.52328340427E+01 0.53812565317E+01 0.53644090641E+01
 0.53801073292E+01 0.52316475108E+01 0.51151949716E+01 0.48274151562E+01 0.45618714131E+01
 0.41171166640E+01 0.36813678995E+01 0.30442121019E+01 0.23960831202E+01 0.15146267772E+01
 0.53066830863E+00 -.86279263829E+00 -.14617141949E+01 -.22064717024E+00 -.26133329457E+01
 -.75097132414E+01 -.13026155067E+02 -.18115586883E+02 -.22575031760E+02 -.27163384389E+02
 -.31429935570E+02 -.35038802223E+02 -.37205355186E+02 -.38146043084E+02 -.37345652518E+02
 -.35083744442E+02 -.23971876461E+02 -.20538740887E+02 -.16512694723E+02 -.11849171956E+02
 -.69117504532E+01 -.23898132787E+01 -.22372090012E+00 -.14500290160E+01 -.98130680010E+00
 0.36760278459E+00 0.14051951192E+01 0.22520361393E+01 0.29477199241E+01 0.35468582182E+01
 0.40508868877E+01 0.44574651835E+01 0.47996281649E+01 0.50476975402E+01 0.52505955348E+01
 0.53609997618E+01 0.54362039372E+01 0.54219295339E+01 0.53761629351E+01 0.52365334973E+01
 0.50617358378E+01 0.47858587762E+01 0.44715523041E+01 0.40381843355E+01 0.35569069581E+01
 0.29372640740E+01 0.22576877695E+01 0.13964860879E+01 0.37837582935E+00 -.95528718917E+00
 -.14635712310E+01 -.16230607510E+00 -.24431321121E+01 -.67980145431E+01 -.11869219158E+02
 -.16584625878E+02 -.20473765462E+02 -.23992676505E+02 -.27163385407E+02 -.29528770209E+02
 -.30849520309E+02 -.30881992860E+02 -.29487256415E+02 -.27076035764E+02 -.17685864059E+02
 -.14159363167E+02 -.99996109357E+01 -.56493387843E+01 -.16729144603E+01 -.25838191606E+00
 -.14290186296E+01 -.98130682124E+00 0.37708659101E+00 0.13122412237E+01 0.21966048936E+01
 0.28330274005E+01 0.34954897605E+01 0.39482226670E+01 0.44212904727E+01 0.47209598608E+01
 0.50395475278E+01 0.52070898681E+01 0.53922661047E+01 0.54417977085E+01 0.55079678988E+01
 0.54431845861E+01 0.53904367300E+01 0.52096286358E+01 0.50343716847E+01 0.47279894519E+01
 0.44109014274E+01 0.39605778656E+01 0.34816828296E+01 0.28554926995E+01 0.21761095313E+01
 0.13337400440E+01 0.31770018550E+00 -.93394711397E+00 -.15350445380E+01 -.17817342709E+00
 -.17840921552E+01 -.56211727757E+01 -.99205975522E+01 -.14240958030E+02 -.17662671604E+02
 -.20473766446E+02 -.22575033717E+02 -.23999393374E+02 -.24389038733E+02 -.23986961939E+02
 -.22612068585E+02 -.20535687547E+02 -.11065692729E+02 -.75744635369E+01 -.37937169346E+01
 -.89124363183E+00 -.43411922026E+00 -.15829748455E+01 -.86163104256E+00 0.36760274417E+00
 0.13122412202E+01 0.21414928084E+01 0.28212720403E+01 0.34260483633E+01 0.39178037850E+01
 0.43530303178E+01 0.46998782527E+01 0.49909981577E+01 0.52092091002E+01 0.53768022312E+01
 0.54803446598E+01 0.55376211396E+01 0.55306961149E+01 0.54852310609E+01 0.53700996028E+01
 0.52180215967E+01 0.49823439197E+01 0.47104843129E+01 0.43413355824E+01 0.39323525216E+01
 0.34022598077E+01 0.28400634301E+01 0.21207452574E+01 0.13693256189E+01 0.32168004033E+00
 -.75914966254E+00 -.16627216916E+01 -.35519887882E+00 -.89625596987E+00 -.39454370969E+01
 -.74045529556E+01 -.11197309575E+02 -.14240958776E+02 -.16584627418E+02 -.18115589186E+02
 -.18906515513E+02 -.18913793296E+02 -.18191914027E+02 -.16523925375E+02 -.14163287909E+02
 -.46980505359E+01 -.18796479166E+01 -.35845558334E+00 -.84401090623E+00 -.15829886289E+01
 -.57210673020E+00 0.53570832741E+00 0.14051950687E+01 0.21966048805E+01 0.28212720130E+01
 0.34040105852E+01 0.38875734657E+01 0.43241878811E+01 0.46716374344E+01 0.49659902924E+01
 0.51974356827E+01 0.53706042464E+01 0.54995033198E+01 0.55641755195E+01 0.55987196411E+01
 0.55644949355E+01 0.55041354178E+01 0.53649026480E+01 0.52045954043E+01 0.49542254647E+01
 0.46866904037E+01 0.43061279672E+01 0.39153389421E+01 0.33836480877E+01 0.28451741006E+01
 0.21375701333E+01 0.14497299412E+01 0.44632451718E+00 -.52564264451E+00 -.15992895279E+01
 -.95306223838E+00 -.85730881867E-01 -.21654676518E+01 -.46405925533E+01 -.74045536752E+01
 -.99205992697E+01 -.11869221740E+02 -.13026158559E+02 -.13429086566E+02 -.12947587474E+02
 -.11822152489E+02 -.10014481738E+02 -.75774075425E+01 -.51921698529E+00 -.46795494853E+00
 -.13375527318E+01 -.13862628960E+01 -.20633025823E+00 0.70184172194E+00 0.15057342340E+01
 0.22520361056E+01 0.28330273726E+01 0.34260483632E+01 0.38875734627E+01 0.43247192484E+01
 0.46477142048E+01 0.49605752850E+01 0.51774913416E+01 0.53780023725E+01 0.54986948145E+01
 0.55996824872E+01 0.56332855449E+01 0.56428765505E+01 0.55874301359E+01 0.55078019188E+01
 0.53649967743E+01 0.51900668902E+01 0.49459254740E+01 0.46577683928E+01 0.43032297292E+01
 0.38952103616E+01 0.34189214379E+01 0.28710050875E+01 0.22379542563E+01 0.15453311749E+01
 0.72245377599E+00 -.27064143015E+00 -.12051513719E+01 -.16140598945E+01 -.32295313475E+00
 -.31527523942E+00 -.21654681764E+01 -.39454381072E+01 -.56211745560E+01 -.67980171064E+01
 -.75097166361E+01 -.75121123712E+01 -.69095774374E+01 -.56228923311E+01 -.38402459227E+01
 -.18932662876E+01 -.11679612550E+01 -.15569829689E+01 -.87492667518E+00 0.25792484073E+00
 0.96071136453E+00 0.17493125878E+01 0.24014283192E+01 0.29477198792E+01 0.34954897281E+01
 0.39178037561E+01 0.43241878632E+01 0.46477142053E+01 0.49541642402E+01 0.51734116718E+01
 0.53742304044E+01 0.55047793107E+01 0.56143379804E+01 0.56651633463E+01 0.56909731982E+01
 0.56644115057E+01 0.56158481152E+01 0.55105355647E+01 0.53763592155E+01 0.51819175267E+01
 0.49555027362E+01 0.46647971337E+01 0.43232276323E+01 0.39140114925E+01 0.34635680169E+01
 0.29543396591E+01 0.23757763906E+01 0.17210822661E+01 0.10148711354E+01 0.13442302457E+00
 -.73319460746E+00 -.15036722790E+01 -.14688815958E+01 -.32295290881E+00 -.85731057519E-01
 -.89625703983E+00 -.17840939936E+01 -.24431346565E+01 -.26133360454E+01 -.23815223191E+01
 -.16986924902E+01 -.87926855620E+00 -.34395888625E+00 -.45565730883E+00 -.10729034542E+01
 -.94319842761E-01 0.70588754217E+00 0.12607943685E+01 0.19968212013E+01 0.25218943497E+01
 0.30401010667E+01 0.35468581788E+01 0.39482226416E+01 0.43530303076E+01 0.46716374290E+01
 0.49605752720E+01 0.51734116698E+01 0.53729902571E+01 0.55075268614E+01 0.56232484952E+01
 0.56859079828E+01 0.57255823529E+01 0.57224643885E+01 0.56948222041E+01 0.56161484080E+01
 0.55116549747E+01 0.53587266690E+01 0.51790410673E+01 0.49471233979E+01 0.46785152961E+01
 0.43571702611E+01 0.39787688988E+01 0.35396662678E+01 0.30657885102E+01 0.25443800060E+01
 0.19563601776E+01 0.13434093805E+01 0.62395338463E+00 -.16745020497E+00 -.89020912374E+00
 -.15036723635E+01 -.16140597296E+01 -.95306156664E+00 -.35519814133E+00 -.17817301915E+00
 -.16230594318E+00 -.22064702953E+00 -.24602676040E+00 -.45266215842E+00 -.85437703900E+00
 -.13415661690E+01 -.15689123073E+01 0.58550730659E+00 0.10689433404E+01 0.16271640816E+01
 0.22898072696E+01 0.27168586546E+01 0.32355251850E+01 0.36826296767E+01 0.40508868435E+01
 0.44212904371E+01 0.46998782205E+01 0.49659902709E+01 0.51774913387E+01 0.53742303985E+01
 0.55075268597E+01 0.56262011872E+01 0.56952258417E+01 0.57458924792E+01 0.57584564106E+01
 0.57464500740E+01 0.56897346490E+01 0.56173856310E+01 0.55021897477E+01 0.53640666225E+01
 0.51739116544E+01 0.49596551561E+01 0.47023839045E+01 0.44057207805E+01 0.40489936793E+01
 0.36505203753E+01 0.32180034980E+01 0.27555518981E+01 0.22264404371E+01 0.16917256195E+01
 0.11218544110E+01 0.47643684267E+00 -.16745031580E+00 -.73319482692E+00 -.12051517222E+01
 -.15992897903E+01 -.16627215497E+01 -.15350439664E+01 -.14635704281E+01 -.14617133917E+01
 -.15696190331E+01 -.15793442451E+01 -.13805145965E+01 -.86845735457E+00 -.81991728180E-01
 0.15242475255E+01 0.21029339097E+01 0.25884969923E+01 0.29308231232E+01 0.34178521929E+01
 0.37722229483E+01 0.41152454536E+01 0.44574651480E+01 0.47209598385E+01 0.49909981473E+01
 0.51974356755E+01 0.53780023562E+01 0.55047793074E+01 0.56232484917E+01 0.56952258418E+01
 0.57528735546E+01 0.57765517627E+01 0.57764014855E+01 0.57411547541E+01 0.56988144241E+01
 0.56174823328E+01 0.55148415186E+01 0.53643023076E+01 0.51927205454E+01 0.49771584414E+01
 0.47365468935E+01 0.44680567320E+01 0.41555313164E+01 0.37798711160E+01 0.33874619029E+01
 0.29791744460E+01 0.25254033995E+01 0.20663975062E+01 0.16012585962E+01 0.11218543329E+01
 0.62395318836E+00 0.13442270089E+00 -.27064184277E+00 -.52564321245E+00 -.75915045132E+00
 -.93394809807E+00 -.95528832255E+00 -.86279392371E+00 -.57770960841E+00 -.20345661904E+00
 0.24947811462E+00 0.69994375607E+00 0.10565823234E+01 0.25159108412E+01 0.28202130599E+01
 0.31715171116E+01 0.36278345081E+01 0.39154949581E+01 0.42634595401E+01 0.45635725421E+01
 0.47996281243E+01 0.50395474930E+01 0.52092090687E+01 0.53706042259E+01 0.54986948125E+01
 0.56143379732E+01 0.56859079811E+01 0.57458924777E+01 0.57765517626E+01 0.57855945371E+01
 0.57674106385E+01 0.57491119240E+01 0.56927563924E+01 0.56201069809E+01 0.55067700479E+01
 0.53786826192E+01 0.52019460670E+01 0.50056904052E+01 0.47897686283E+01 0.45475386144E+01
 0.42534389404E+01 0.39248048333E+01 0.35891170409E+01 0.32428451295E+01 0.28419584958E+01
 0.24619526354E+01 0.20663974379E+01 0.16917254913E+01 0.13434091557E+01 0.10148708024E+01
 0.72245328037E+00 0.44632393500E+00 0.32167941380E+00 0.31769952285E+00 0.37837510910E+00
 0.53066754737E+00 0.70362491380E+00 0.95998229517E+00 0.12701196549E+01 0.16319168461E+01
 0.21156676681E+01 0.31135206097E+01 0.35059677924E+01 0.38499570586E+01 0.40655493020E+01
 0.43868886777E+01 0.46139099930E+01 0.48270550482E+01 0.50476975121E+01 0.52070898513E+01
 0.53768022249E+01 0.54995033136E+01 0.55996824721E+01 0.56651633446E+01 0.57255823504E+01
 0.57584564117E+01 0.57764014871E+01 0.57674106395E+01 0.57669309633E+01 0.57286075505E+01
 0.56815147151E+01 0.56002668149E+01 0.55111605043E+01 0.53742461491E+01 0.52235778838E+01
 0.50433978728E+01 0.48423324991E+01 0.46293188150E+01 0.43860041188E+01 0.40906022625E+01
 0.37971621540E+01 0.34879482544E+01 0.31521351936E+01 0.28419584506E+01 0.25254032924E+01
 0.22264402649E+01 0.19563599310E+01 0.17210819435E+01 0.15453307931E+01 0.14497294310E+01
 0.13693249791E+01 0.13337392859E+01 0.13964852648E+01 0.15146259231E+01 0.17439429135E+01
 0.19966918882E+01 0.22809544709E+01 0.25839893012E+01 0.28074763517E+01 0.37993324349E+01
 0.39988325827E+01 0.42117589279E+01 0.45225215289E+01 0.47022155016E+01 0.49246851208E+01
 0.51146728822E+01 0.52505954993E+01 0.53922660733E+01 0.54803446315E+01 0.55641755034E+01
 0.56332855465E+01 0.56909731938E+01 0.57224643892E+01 0.57464500762E+01 0.57411547568E+01
 0.57491119250E+01 0.57286075522E+01 0.57005802629E+01 0.56468258880E+01 0.55860651926E+01
 0.54871623782E+01 0.53794966375E+01 0.52367903712E+01 0.50686684045E+01 0.49147455320E+01
 0.47373656990E+01 0.44992929147E+01 0.42387611855E+01 0.40121969942E+01 0.37576877563E+01
 0.34879482259E+01 0.32428450436E+01 0.29791743034E+01 0.27555517043E+01 0.25443797377E+01
 0.23757760611E+01 0.22379538403E+01 0.21375697030E+01 0.21207447948E+01 0.21761090742E+01
 0.22576872833E+01 0.23960826140E+01 0.25291798697E+01 0.27166426811E+01 0.29399800519E+01
 0.31752444761E+01 0.35188492210E+01 0.41790255228E+01 0.44393546497E+01 0.46765304854E+01
 0.47923286999E+01 0.49911490324E+01 0.51190187798E+01 0.52328340152E+01 0.53609997430E+01
 0.54417976992E+01 0.55376211404E+01 0.55987196384E+01 0.56428765402E+01 0.56644115079E+01
 0.56948222064E+01 0.56897346563E+01 0.56988144268E+01 0.56927563975E+01 0.56815147190E+01
 0.56468258907E+01 0.56107453161E+01 0.55419573451E+01 0.54743741704E+01 0.53657831751E+01
 0.52376431755E+01 0.51231922121E+01 0.49875909088E+01 0.48134037431E+01 0.46175229286E+01
 0.44301316919E+01 0.42475961020E+01 0.40121969448E+01 0.37971620869E+01 0.35891169159E+01
 0.33874617469E+01 0.32180032852E+01 0.30657882508E+01 0.29543393478E+01 0.28710047229E+01
 0.28451736724E+01 0.28400629349E+01 0.28554921351E+01 0.29372634796E+01 0.30442115033E+01
 0.32271248377E+01 0.34181973850E+01 0.36182695534E+01 0.38473056189E+01 0.39853287019E+01
 0.46409546350E+01 0.47501964843E+01 0.48581231910E+01 0.50535332809E+01 0.51503432574E+01
 0.52723701740E+01 0.53812564952E+01 0.54362039079E+01 0.55079678727E+01 0.55306960922E+01
 0.55644949264E+01 0.55874301451E+01 0.56158481145E+01 0.56161484186E+01 0.56173856368E+01
 0.56174823398E+01 0.56201069877E+01 0.56002668225E+01 0.55860651982E+01 0.55419573489E+01
 0.55055205972E+01 0.54289194465E+01 0.53404512919E+01 0.52617165299E+01 0.51540157604E+01
 0.50419544544E+01 0.49158611085E+01 0.47557639636E+01 0.46007386262E+01 0.44301316459E+01
 0.42387611289E+01 0.40906021750E+01 0.39248046930E+01 0.37798709450E+01 0.36505201505E+01
 0.35396660079E+01 0.34635677184E+01 0.34189210969E+01 0.33836477094E+01 0.34022594480E+01
 0.34816824640E+01 0.35569065974E+01 0.36813675161E+01 0.37792575695E+01 0.39172178834E+01
 0.40730256574E+01 0.42159237315E+01 0.44513461430E+01 0.48371202197E+01 0.49950941352E+01
 0.51442823957E+01 0.51801733824E+01 0.52806361423E+01 0.53301135050E+01 0.53644090488E+01
 0.54219295257E+01 0.54431845877E+01 0.54852310703E+01 0.55041354226E+01 0.55078019145E+01
 0.55105355754E+01 0.55116549876E+01 0.55021897596E+01 0.55148415291E+01 0.55067700602E+01
 0.55111605151E+01 0.54871623888E+01 0.54743741770E+01 0.54289194509E+01 0.53756859834E+01
 0.53322652018E+01 0.52517963037E+01 0.51928980984E+01 0.51228962270E+01 0.49934438245E+01
 0.48597732788E+01 0.47557639476E+01 0.46175228685E+01 0.44992928527E+01 0.43860039934E+01
 0.42534387943E+01 0.41555311306E+01 0.40489934522E+01 0.39787686435E+01 0.39140111963E+01
 0.38952100778E+01 0.39153385940E+01 0.39323521337E+01 0.39605774491E+01 0.40381838998E+01
 0.41171162504E+01 0.42546031389E+01 0.43864997411E+01 0.45135723841E+01 0.46739405108E+01
 0.47386501599E+01 0.51160555614E+01 0.51510684026E+01 0.51661803140E+01 0.52706150172E+01
 0.52942115356E+01 0.53396107984E+01 0.53801073015E+01 0.53761629124E+01 0.53904367123E+01
 0.53700995866E+01 0.53649026514E+01 0.53649967912E+01 0.53763592266E+01 0.53587266908E+01
 0.53640666368E+01 0.53643023253E+01 0.53786826340E+01 0.53742461663E+01 0.53794966507E+01
 0.53657831891E+01 0.53404513011E+01 0.53322652076E+01 0.52830256751E+01 0.52676360218E+01
 0.52408509890E+01 0.51471986382E+01 0.50480828138E+01 0.49934438283E+01 0.49158610479E+01
 0.48134036846E+01 0.47373656034E+01 0.46293186879E+01 0.45475384750E+01 0.44680565517E+01
 0.44057205798E+01 0.43571700225E+01 0.43232273599E+01 0.43032294421E+01 0.43061276933E+01
 0.43413353042E+01 0.44109011683E+01 0.44715520527E+01 0.45618711471E+01 0.46232534187E+01
 0.47026886218E+01 0.48014489144E+01 0.48585213102E+01 0.50078093554E+01 0.51511119649E+01
 0.52225517573E+01 0.52944071573E+01 0.52634406289E+01 0.52792118040E+01 0.52652543638E+01
 0.52316475091E+01 0.52365335029E+01 0.52096286510E+01 0.52180216189E+01 0.52045954204E+01
 0.51900668950E+01 0.51819175520E+01 0.51790410936E+01 0.51739116813E+01 0.51927205693E+01
 0.52019460922E+01 0.52235779062E+01 0.52367903945E+01 0.52376431953E+01 0.52617165472E+01
 0.52517963185E+01 0.52676360285E+01 0.52804080721E+01 0.52226221011E+01 0.51668346986E+01
 0.51471986434E+01 0.51228961802E+01 0.50419543869E+01 0.49875908416E+01 0.49147454139E+01
 0.48423323853E+01 0.47897684779E+01 0.47365467334E+01 0.47023837196E+01 0.46785150963E+01
 0.46647968944E+01 0.46577681481E+01 0.46866901556E+01 0.47104840218E+01 0.47279891644E+01
 0.47858584698E+01 0.48274148959E+01 0.49157264280E+01 0.49897122076E+01 0.50469697001E+01
 0.51422460554E+01 0.51394642933E+01 0.52714144062E+01 0.52330076726E+01 0.51676878444E+01
 0.51877080236E+01 0.51503997068E+01 0.51278689412E+01 0.51151949538E+01 0.50617358253E+01
 0.50343716776E+01 0.49823439152E+01 0.49542254848E+01 0.49459255053E+01 0.49555027613E+01
 0.49471234378E+01 0.49596551903E+01 0.49771584799E+01 0.50056904387E+01 0.50433979087E+01
 0.50686684376E+01 0.51231922435E+01 0.51540157900E+01 0.51928981192E+01 0.52408510028E+01
 0.52226221091E+01 0.52060234432E+01 0.52226221055E+01 0.52408509553E+01 0.51928980237E+01
 0.51540157041E+01 0.51231921112E+01 0.50686682934E+01 0.50433977493E+01 0.50056902494E+01
 0.49771582880E+01 0.49596549813E+01 0.49471232310E+01 0.49555025361E+01 0.49459252484E+01
 0.49542252751E+01 0.49823437373E+01 0.50343715185E+01 0.50617356939E+01 0.51151948073E+01
 0.51278689255E+01 0.51503995782E+01 0.51877080203E+01 0.51676877611E+01 0.52330074821E+01
 0.51511120427E+01 0.51394642413E+01 0.51422461571E+01 0.50469699628E+01 0.49897124041E+01
 0.49157267911E+01 0.48274151730E+01 0.47858588002E+01 0.47279894870E+01 0.47104843536E+01
 0.46866904372E+01 0.46577684146E+01 0.46647971747E+01 0.46785153416E+01 0.47023839560E+01
 0.47365469446E+01 0.47897686789E+01 0.48423325500E+01 0.49147455772E+01 0.49875909530E+01
 0.50419544893E+01 0.51228962545E+01 0.51471986617E+01 0.51668347141E+01 0.52226221139E+01
 0.52804080451E+01 0.52676359421E+01 0.52517962544E+01 0.52617164448E+01 0.52376430650E+01
 0.52367902614E+01 0.52235777342E+01 0.52019459179E+01 0.51927203844E+01 0.51739114929E+01
 0.51790409255E+01 0.51819173641E+01 0.51900667171E+01 0.52045952371E+01 0.52180214068E+01
 0.52096284589E+01 0.52365333100E+01 0.52316473803E+01 0.52652541438E+01 0.52792117542E+01
 0.52634405080E+01 0.52944071625E+01 0.52225519533E+01 0.51160556859E+01 0.50078096885E+01
 0.48585215696E+01 0.48014490612E+01 0.47026888808E+01 0.46232535662E+01 0.45618714094E+01
 0.44715523056E+01 0.44109014369E+01 0.43413355950E+01 0.43061280118E+01 0.43032297876E+01
 0.43232276744E+01 0.43571703186E+01 0.44057208390E+01 0.44680567953E+01 0.45475386771E+01
 0.46293188747E+01 0.47373657540E+01 0.48134037947E+01 0.49158611483E+01 0.49934438647E+01
 0.50480828463E+01 0.51471986693E+01 0.52408509716E+01 0.52676359509E+01 0.52830256279E+01
 0.53322651296E+01 0.53404511773E+01 0.53657830813E+01 0.53794964963E+01 0.53742460190E+01
 0.53786824692E+01 0.53643021590E+01 0.53640664760E+01 0.53587265521E+01 0.53763590894E+01
 0.53649966260E+01 0.53649025447E+01 0.53700995095E+01 0.53904366578E+01 0.53761628904E+01
 0.53801072628E+01 0.53396109045E+01 0.52942115286E+01 0.52706151446E+01 0.51661803993E+01
 0.51510683460E+01 0.48371204666E+01 0.47386502560E+01 0.46739407355E+01 0.45135728011E+01
 0.43865001114E+01 0.42546036684E+01 0.41171167062E+01 0.40381843877E+01 0.39605779294E+01
 0.39323525927E+01 0.39153389970E+01 0.38952104186E+01 0.39140115610E+01 0.39787689643E+01
 0.40489937514E+01 0.41555313867E+01 0.42534390135E+01 0.43860041841E+01 0.44992929823E+01
 0.46175229847E+01 0.47557640206E+01 0.48597733327E+01 0.49934438716E+01 0.51228962125E+01
 0.51928980498E+01 0.52517962732E+01 0.53322651381E+01 0.53756858706E+01 0.54289193621E+01
 0.54743740433E+01 0.54871622610E+01 0.55111603787E+01 0.55067699106E+01 0.55148413908E+01
 0.55021896158E+01 0.55116548994E+01 0.55105354579E+01 0.55078018339E+01 0.55041353309E+01
 0.54852309678E+01 0.54431845166E+01 0.54219294551E+01 0.53644090595E+01 0.53301134130E+01
 0.52806362361E+01 0.51801733997E+01 0.51442825116E+01 0.49950944817E+01 0.46409548986E+01
 0.44513466459E+01 0.42159241978E+01 0.40730259756E+01 0.39172182978E+01 0.37792578655E+01
 0.36813679155E+01 0.35569069828E+01 0.34816828616E+01 0.34022598520E+01 0.33836481611E+01
 0.34189215384E+01 0.34635681017E+01 0.35396663614E+01 0.36505204610E+01 0.37798712076E+01
 0.39248049173E+01 0.40906023490E+01 0.42387612683E+01 0.44301317687E+01 0.46007387026E+01
 0.47557640089E+01 0.49158610961E+01 0.50419544308E+01 0.51540157427E+01 0.52617164707E+01
 0.53404511938E+01 0.54289193701E+01 0.55055204782E+01 0.55419572371E+01 0.55860650878E+01
 0.56002666984E+01 0.56201068772E+01 0.56174822113E+01 0.56173855464E+01 0.56161483540E+01
 0.56158480440E+01 0.55874300830E+01 0.55644949085E+01 0.55306961202E+01 0.55079679130E+01
 0.54362039993E+01 0.53812565582E+01 0.52723704091E+01 0.51503433714E+01 0.50535335451E+01
 0.48581234556E+01 0.47501965715E+01 0.41790259677E+01 0.39853289746E+01 0.38473059891E+01
 0.36182701626E+01 0.34181979707E+01 0.32271255867E+01 0.30442121825E+01 0.29372641711E+01
 0.28554928067E+01 0.28400635500E+01 0.28451741932E+01 0.28710051741E+01 0.29543397811E+01
 0.30657886250E+01 0.32180036206E+01 0.33874620198E+01 0.35891171552E+01 0.37971622660E+01
 0.40121970946E+01 0.42475961925E+01 0.44301317287E+01 0.46175229351E+01 0.48134037492E+01
 0.49875908987E+01 0.51231921567E+01 0.52376430980E+01 0.53657831067E+01 0.54743740582E+01
 0.55419572456E+01 0.56107452208E+01 0.56468257885E+01 0.56815146258E+01 0.56927562953E+01
 0.56988143326E+01 0.56897346065E+01 0.56948221764E+01 0.56644114669E+01 0.56428765554E+01
 0.55987196336E+01 0.55376211481E+01 0.54417977425E+01 0.53609997962E+01 0.52328341640E+01
 0.51190188212E+01 0.49911492765E+01 0.47923288756E+01 0.46765307224E+01 0.44393551799E+01
 0.37993328679E+01 0.35188499487E+01 0.31752452079E+01 0.29399805977E+01 0.27166432857E+01
 0.25291803470E+01 0.23960831678E+01 0.22576878252E+01 0.21761096020E+01 0.21207453378E+01
 0.21375702716E+01 0.22379544018E+01 0.23757765174E+01 0.25443801474E+01 0.27555520329E+01
 0.29791745836E+01 0.32428452554E+01 0.34879483786E+01 0.37576878608E+01 0.40121970522E+01
 0.42387612239E+01 0.44992929378E+01 0.47373656774E+01 0.49147454794E+01 0.50686683462E+01
 0.52367903043E+01 0.53794965268E+01 0.54871622851E+01 0.55860651022E+01 0.56468257959E+01
 0.57005801821E+01 0.57286074708E+01 0.57491118458E+01 0.57411547024E+01 0.57464500806E+01
 0.57224643657E+01 0.56909732203E+01 0.56332855680E+01 0.55641755851E+01 0.54803447599E+01
 0.53922662162E+01 0.52505957096E+01 0.51146730569E+01 0.49246855023E+01 0.47022157534E+01
 0.45225219510E+01 0.42117594072E+01 0.39988328413E+01 0.31135213216E+01 0.28074768422E+01
 0.25839898600E+01 0.22809553279E+01 0.19966927729E+01 0.17439439765E+01 0.15146269256E+01
 0.13964862591E+01 0.13337402330E+01 0.13693258153E+01 0.14497300941E+01 0.15453313301E+01
 0.17210824443E+01 0.19563603396E+01 0.22264406078E+01 0.25254035525E+01 0.28419586504E+01
 0.31521353353E+01 0.34879483588E+01 0.37971622141E+01 0.40906022832E+01 0.43860040845E+01
 0.46293187735E+01 0.48423324614E+01 0.50433978113E+01 0.52235777820E+01 0.53742460585E+01
 0.55111604083E+01 0.56002667206E+01 0.56815146396E+01 0.57286074773E+01 0.57669308954E+01
 0.57674105812E+01 0.57764015066E+01 0.57584564098E+01 0.57255823866E+01 0.56651633972E+01
 0.55996825662E+01 0.54995034138E+01 0.53768023337E+01 0.52070900271E+01 0.50476976877E+01
 0.48270553616E+01 0.46139101754E+01 0.43868891095E+01 0.40655496663E+01 0.38499574516E+01
 0.35059685585E+01 0.25159114964E+01 0.21156687161E+01 0.16319179720E+01 0.12701205480E+01
 0.95998321918E+00 0.70362571130E+00 0.53066842312E+00 0.37837596195E+00 0.31770033860E+00
 0.32168021863E+00 0.44632477026E+00 0.72245403404E+00 0.10148713603E+01 0.13434095969E+01
 0.16917258165E+01 0.20663976997E+01 0.24619528151E+01 0.28419586161E+01 0.32428451893E+01
 0.35891170550E+01 0.39248048080E+01 0.42534389011E+01 0.45475385710E+01 0.47897685621E+01
 0.50056903164E+01 0.52019459749E+01 0.53786825131E+01 0.55067699475E+01 0.56201069037E+01
 0.56927563154E+01 0.57491118574E+01 0.57674105874E+01 0.57855945659E+01 0.57765517783E+01
 0.57458925208E+01 0.56859080507E+01 0.56143380725E+01 0.54986949348E+01 0.53706044029E+01
 0.52092093142E+01 0.50395477455E+01 0.47996284791E+01 0.45635728459E+01 0.42634601085E+01
 0.39154953792E+01 0.36278351308E+01 0.31715178763E+01 0.28202135370E+01 0.15242486371E+01
 0.10565831616E+01 0.69994469154E+00 0.24947954900E+00 -.20345503368E+00 -.57770786956E+00
 -.86279235839E+00 -.95528688543E+00 -.93394679318E+00 -.75914933575E+00 -.52564238826E+00
 -.27064116958E+00 0.13442332859E+00 0.62395366397E+00 0.11218546627E+01 0.16012588020E+01
 0.20663976436E+01 0.25254034687E+01 0.29791744713E+01 0.33874618993E+01 0.37798710777E+01
 0.41555312442E+01 0.44680566565E+01 0.47365468243E+01 0.49771583654E+01 0.51927204460E+01
 0.53643022109E+01 0.55148414316E+01 0.56174822443E+01 0.56988143565E+01 0.57411547202E+01
 0.57764015179E+01 0.57765517833E+01 0.57528736009E+01 0.56952259217E+01 0.56232485999E+01
 0.55047794496E+01 0.53780025409E+01 0.51974358863E+01 0.49909983732E+01 0.47209601641E+01
 0.44574654700E+01 0.41152459672E+01 0.37722233053E+01 0.34178528678E+01 0.29308237456E+01