       N       E                     dE             d eps       ncg     rms          rms(c)
DAV:   1    -0.964064768585E+01   -0.96406E+01   -0.89678E-06 32784   0.358E-02    0.138E-03
RMM:   2    -0.964064763403E+01    0.51817E-07   -0.14474E-07 15112   0.369E-03
   1 F= -.96406476E+01 E0= -.96406476E+01  d E =-.442728-253
