<?xml version="1.0" encoding="ISO-8859-1"?>
<modeling>
 <generator>
  <i name="program" type="string">vasp </i>
  <i name="version" type="string">5.4.4.18Apr17-6-g9f103f2a35  </i>
  <i name="subversion" type="string">(build Nov 08 2022 17:27:33) complex            parallel </i>
  <i name="platform" type="string">LinuxIFC </i>
  <i name="date" type="string">2022 11 22 </i>
  <i name="time" type="string">17:15:36 </i>
 </generator>
 <incar>
  <i type="string" name="PREC">accurate</i>
  <i type="string" name="ALGO"> Fast</i>
  <i type="int" name="ISPIN">     1</i>
  <i type="int" name="ICHARG">     0</i>
  <i type="int" name="NELM">   100</i>
  <i type="int" name="IBRION">     2</i>
  <i name="EDIFF">      0.00000100</i>
  <i name="EDIFFG">     -0.03000000</i>
  <i type="int" name="NSW">     0</i>
  <i type="int" name="ISIF">     3</i>
  <i type="int" name="ISYM">     0</i>
  <i name="ENCUT">    520.00000000</i>
  <i name="ENAUG">   1040.00000000</i>
  <v name="MAGMOM">      0.00000000      0.00000000</v>
  <i type="logical" name="LREAL"> F  </i>
  <i type="int" name="ISMEAR">     0</i>
  <i name="SIGMA">      0.01000000</i>
  <i name="KSPACING">      0.22000000</i>
  <i type="logical" name="LWAVE"> T  </i>
  <i type="logical" name="LCHARG"> T  </i>
  <i type="logical" name="LVHAR"> T  </i>
  <i type="int" name="LORBIT">     0</i>
  <i type="logical" name="LASPH"> T  </i>
  <i type="logical" name="LAECHG"> T  </i>
  <v type="int" name="KPOINT_BSE">    -1     0     0     0</v>
  <i type="int" name="NELM">   100</i>
  <i type="string" name="GGA"> Pe</i>
  <i type="logical" name="LASPH"> T  </i>
 </incar>
 <structure name="primitive_cell" >
  <crystal>
   <varray name="basis" >
    <v>       0.00000356       2.02881796       2.02881792 </v>
    <v>       2.02881796       0.00000357       2.02881792 </v>
    <v>       2.02881798       2.02881798       0.00000354 </v>
   </varray>
   <i name="volume">     16.70160054 </i>
   <varray name="rec_basis" >
    <v>      -0.24644957       0.24644914       0.24644914 </v>
    <v>       0.24644914      -0.24644957       0.24644914 </v>
    <v>       0.24644913       0.24644914      -0.24644957 </v>
   </varray>
  </crystal>
  <varray name="positions" >
   <v>       0.00000001       0.00000001      -0.00000001 </v>
   <v>       0.49999999       0.49999999      -0.49999999 </v>
  </varray>
 </structure>
 <varray name="primitive_index" >
  <v type="int" >        1 </v>
  <v type="int" >        2 </v>
 </varray>
 <kpoints>
  <generation param="Gamma">
   <v type="int" name="divisions">      13       13       13 </v>
   <v name="usershift">      0.00000000       0.00000000       0.00000000 </v>
   <v name="genvec1">      0.07692308       0.00000000      -0.00000000 </v>
   <v name="genvec2">     -0.00000000       0.07692308       0.00000000 </v>
   <v name="genvec3">      0.00000000       0.00000000       0.07692308 </v>
   <v name="shift">      0.00000000       0.00000000       0.00000000 </v>
  </generation>
  <varray name="kpointlist" >
   <v>       0.00000000       0.00000000       0.00000000 </v>
   <v>       0.07692308      -0.00000000       0.00000000 </v>
   <v>       0.15384615      -0.00000000      -0.00000000 </v>
   <v>       0.23076923       0.00000000      -0.00000000 </v>
   <v>       0.30769231       0.00000000      -0.00000000 </v>
   <v>       0.38461538       0.00000000      -0.00000000 </v>
   <v>       0.46153846       0.00000000      -0.00000000 </v>
   <v>      -0.00000000       0.07692308      -0.00000000 </v>
   <v>       0.07692308       0.07692308      -0.00000000 </v>
   <v>       0.15384615       0.07692308      -0.00000000 </v>
   <v>       0.23076923       0.07692308      -0.00000000 </v>
   <v>       0.30769231       0.07692308      -0.00000000 </v>
   <v>       0.38461538       0.07692308      -0.00000000 </v>
   <v>       0.46153846       0.07692308      -0.00000000 </v>
   <v>      -0.46153846       0.07692308       0.00000000 </v>
   <v>      -0.38461538       0.07692308      -0.00000000 </v>
   <v>      -0.30769231       0.07692308       0.00000000 </v>
   <v>      -0.23076923       0.07692308      -0.00000000 </v>
   <v>      -0.15384615       0.07692308      -0.00000000 </v>
   <v>      -0.07692308       0.07692308      -0.00000000 </v>
   <v>      -0.00000000       0.15384615      -0.00000000 </v>
   <v>       0.07692308       0.15384615       0.00000000 </v>
   <v>       0.15384615       0.15384615      -0.00000000 </v>
   <v>       0.23076923       0.15384615      -0.00000000 </v>
   <v>       0.30769231       0.15384615      -0.00000000 </v>
   <v>       0.38461538       0.15384615      -0.00000000 </v>
   <v>       0.46153846       0.15384615      -0.00000000 </v>
   <v>      -0.46153846       0.15384615       0.00000000 </v>
   <v>      -0.38461538       0.15384615       0.00000000 </v>
   <v>      -0.30769231       0.15384615       0.00000000 </v>
   <v>      -0.23076923       0.15384615       0.00000000 </v>
   <v>      -0.15384615       0.15384615      -0.00000000 </v>
   <v>      -0.07692308       0.15384615      -0.00000000 </v>
   <v>      -0.00000000       0.23076923       0.00000000 </v>
   <v>       0.07692308       0.23076923       0.00000000 </v>
   <v>       0.15384615       0.23076923       0.00000000 </v>
   <v>       0.23076923       0.23076923      -0.00000000 </v>
   <v>       0.30769231       0.23076923      -0.00000000 </v>
   <v>       0.38461538       0.23076923      -0.00000000 </v>
   <v>       0.46153846       0.23076923      -0.00000000 </v>
   <v>      -0.46153846       0.23076923       0.00000000 </v>
   <v>      -0.38461538       0.23076923       0.00000000 </v>
   <v>      -0.30769231       0.23076923       0.00000000 </v>
   <v>      -0.23076923       0.23076923      -0.00000000 </v>
   <v>      -0.15384615       0.23076923       0.00000000 </v>
   <v>      -0.07692308       0.23076923       0.00000000 </v>
   <v>       0.00000000       0.30769231       0.00000000 </v>
   <v>       0.07692308       0.30769231       0.00000000 </v>
   <v>       0.15384615       0.30769231       0.00000000 </v>
   <v>       0.23076923       0.30769231      -0.00000000 </v>
   <v>       0.30769231       0.30769231      -0.00000000 </v>
   <v>       0.38461538       0.30769231      -0.00000000 </v>
   <v>       0.46153846       0.30769231      -0.00000000 </v>
   <v>      -0.46153846       0.30769231       0.00000000 </v>
   <v>      -0.38461538       0.30769231       0.00000000 </v>
   <v>      -0.30769231       0.30769231       0.00000000 </v>
   <v>      -0.23076923       0.30769231       0.00000000 </v>
   <v>      -0.15384615       0.30769231      -0.00000000 </v>
   <v>      -0.07692308       0.30769231       0.00000000 </v>
   <v>      -0.00000000       0.38461538       0.00000000 </v>
   <v>       0.07692308       0.38461538       0.00000000 </v>
   <v>       0.15384615       0.38461538       0.00000000 </v>
   <v>       0.23076923       0.38461538      -0.00000000 </v>
   <v>       0.30769231       0.38461538       0.00000000 </v>
   <v>       0.38461538       0.38461538      -0.00000000 </v>
   <v>       0.46153846       0.38461538      -0.00000000 </v>
   <v>      -0.46153846       0.38461538       0.00000000 </v>
   <v>      -0.38461538       0.38461538       0.00000000 </v>
   <v>      -0.30769231       0.38461538       0.00000000 </v>
   <v>      -0.23076923       0.38461538       0.00000000 </v>
   <v>      -0.15384615       0.38461538       0.00000000 </v>
   <v>      -0.07692308       0.38461538       0.00000000 </v>
   <v>      -0.00000000       0.46153846       0.00000000 </v>
   <v>       0.07692308       0.46153846      -0.00000000 </v>
   <v>       0.15384615       0.46153846       0.00000000 </v>
   <v>       0.23076923       0.46153846      -0.00000000 </v>
   <v>       0.30769231       0.46153846      -0.00000000 </v>
   <v>       0.38461538       0.46153846      -0.00000000 </v>
   <v>       0.46153846       0.46153846      -0.00000000 </v>
   <v>      -0.46153846       0.46153846      -0.00000000 </v>
   <v>      -0.38461538       0.46153846       0.00000000 </v>
   <v>      -0.30769231       0.46153846       0.00000000 </v>
   <v>      -0.23076923       0.46153846       0.00000000 </v>
   <v>      -0.15384615       0.46153846      -0.00000000 </v>
   <v>      -0.07692308       0.46153846      -0.00000000 </v>
   <v>       0.00000000       0.00000000       0.07692308 </v>
   <v>       0.07692308       0.00000000       0.07692308 </v>
   <v>       0.15384615       0.00000000       0.07692308 </v>
   <v>       0.23076923      -0.00000000       0.07692308 </v>
   <v>       0.30769231       0.00000000       0.07692308 </v>
   <v>       0.38461538      -0.00000000       0.07692308 </v>
   <v>       0.46153846      -0.00000000       0.07692308 </v>
   <v>      -0.46153846      -0.00000000       0.07692308 </v>
   <v>      -0.38461538      -0.00000000       0.07692308 </v>
   <v>      -0.30769231      -0.00000000       0.07692308 </v>
   <v>      -0.23076923       0.00000000       0.07692308 </v>
   <v>      -0.15384615      -0.00000000       0.07692308 </v>
   <v>      -0.07692308      -0.00000000       0.07692308 </v>
   <v>      -0.00000000       0.07692308       0.07692308 </v>
   <v>       0.07692308       0.07692308       0.07692308 </v>
   <v>       0.15384615       0.07692308       0.07692308 </v>
   <v>       0.23076923       0.07692308       0.07692308 </v>
   <v>       0.30769231       0.07692308       0.07692308 </v>
   <v>       0.38461538       0.07692308       0.07692308 </v>
   <v>       0.46153846       0.07692308       0.07692308 </v>
   <v>      -0.46153846       0.07692308       0.07692308 </v>
   <v>      -0.38461538       0.07692308       0.07692308 </v>
   <v>      -0.30769231       0.07692308       0.07692308 </v>
   <v>      -0.23076923       0.07692308       0.07692308 </v>
   <v>      -0.15384615       0.07692308       0.07692308 </v>
   <v>      -0.07692308       0.07692308       0.07692308 </v>
   <v>      -0.00000000       0.15384615       0.07692308 </v>
   <v>       0.07692308       0.15384615       0.07692308 </v>
   <v>       0.15384615       0.15384615       0.07692308 </v>
   <v>       0.23076923       0.15384615       0.07692308 </v>
   <v>       0.30769231       0.15384615       0.07692308 </v>
   <v>       0.38461538       0.15384615       0.07692308 </v>
   <v>       0.46153846       0.15384615       0.07692308 </v>
   <v>      -0.46153846       0.15384615       0.07692308 </v>
   <v>      -0.38461538       0.15384615       0.07692308 </v>
   <v>      -0.30769231       0.15384615       0.07692308 </v>
   <v>      -0.23076923       0.15384615       0.07692308 </v>
   <v>      -0.15384615       0.15384615       0.07692308 </v>
   <v>      -0.07692308       0.15384615       0.07692308 </v>
   <v>       0.00000000       0.23076923       0.07692308 </v>
   <v>       0.07692308       0.23076923       0.07692308 </v>
   <v>       0.15384615       0.23076923       0.07692308 </v>
   <v>       0.23076923       0.23076923       0.07692308 </v>
   <v>       0.30769231       0.23076923       0.07692308 </v>
   <v>       0.38461538       0.23076923       0.07692308 </v>
   <v>       0.46153846       0.23076923       0.07692308 </v>
   <v>      -0.46153846       0.23076923       0.07692308 </v>
   <v>      -0.38461538       0.23076923       0.07692308 </v>
   <v>      -0.30769231       0.23076923       0.07692308 </v>
   <v>      -0.23076923       0.23076923       0.07692308 </v>
   <v>      -0.15384615       0.23076923       0.07692308 </v>
   <v>      -0.07692308       0.23076923       0.07692308 </v>
   <v>      -0.00000000       0.30769231       0.07692308 </v>
   <v>       0.07692308       0.30769231       0.07692308 </v>
   <v>       0.15384615       0.30769231       0.07692308 </v>
   <v>       0.23076923       0.30769231       0.07692308 </v>
   <v>       0.30769231       0.30769231       0.07692308 </v>
   <v>       0.38461538       0.30769231       0.07692308 </v>
   <v>       0.46153846       0.30769231       0.07692308 </v>
   <v>      -0.46153846       0.30769231       0.07692308 </v>
   <v>      -0.38461538       0.30769231       0.07692308 </v>
   <v>      -0.30769231       0.30769231       0.07692308 </v>
   <v>      -0.23076923       0.30769231       0.07692308 </v>
   <v>      -0.15384615       0.30769231       0.07692308 </v>
   <v>      -0.07692308       0.30769231       0.07692308 </v>
   <v>       0.00000000       0.38461538       0.07692308 </v>
   <v>       0.07692308       0.38461538       0.07692308 </v>
   <v>       0.15384615       0.38461538       0.07692308 </v>
   <v>       0.23076923       0.38461538       0.07692308 </v>
   <v>       0.30769231       0.38461538       0.07692308 </v>
   <v>       0.38461538       0.38461538       0.07692308 </v>
   <v>       0.46153846       0.38461538       0.07692308 </v>
   <v>      -0.46153846       0.38461538       0.07692308 </v>
   <v>      -0.38461538       0.38461538       0.07692308 </v>
   <v>      -0.30769231       0.38461538       0.07692308 </v>
   <v>      -0.23076923       0.38461538       0.07692308 </v>
   <v>      -0.15384615       0.38461538       0.07692308 </v>
   <v>      -0.07692308       0.38461538       0.07692308 </v>
   <v>      -0.00000000       0.46153846       0.07692308 </v>
   <v>       0.07692308       0.46153846       0.07692308 </v>
   <v>       0.15384615       0.46153846       0.07692308 </v>
   <v>       0.23076923       0.46153846       0.07692308 </v>
   <v>       0.30769231       0.46153846       0.07692308 </v>
   <v>       0.38461538       0.46153846       0.07692308 </v>
   <v>       0.46153846       0.46153846       0.07692308 </v>
   <v>      -0.46153846       0.46153846       0.07692308 </v>
   <v>      -0.38461538       0.46153846       0.07692308 </v>
   <v>      -0.30769231       0.46153846       0.07692308 </v>
   <v>      -0.23076923       0.46153846       0.07692308 </v>
   <v>      -0.15384615       0.46153846       0.07692308 </v>
   <v>      -0.07692308       0.46153846       0.07692308 </v>
   <v>       0.00000000      -0.46153846       0.07692308 </v>
   <v>       0.07692308      -0.46153846       0.07692308 </v>
   <v>       0.15384615      -0.46153846       0.07692308 </v>
   <v>       0.23076923      -0.46153846       0.07692308 </v>
   <v>       0.30769231      -0.46153846       0.07692308 </v>
   <v>       0.38461538      -0.46153846       0.07692308 </v>
   <v>       0.46153846      -0.46153846       0.07692308 </v>
   <v>      -0.46153846      -0.46153846       0.07692308 </v>
   <v>      -0.38461538      -0.46153846       0.07692308 </v>
   <v>      -0.30769231      -0.46153846       0.07692308 </v>
   <v>      -0.23076923      -0.46153846       0.07692308 </v>
   <v>      -0.15384615      -0.46153846       0.07692308 </v>
   <v>      -0.07692308      -0.46153846       0.07692308 </v>
   <v>       0.00000000      -0.38461538       0.07692308 </v>
   <v>       0.07692308      -0.38461538       0.07692308 </v>
   <v>       0.15384615      -0.38461538       0.07692308 </v>
   <v>       0.23076923      -0.38461538       0.07692308 </v>
   <v>       0.30769231      -0.38461538       0.07692308 </v>
   <v>       0.38461538      -0.38461538       0.07692308 </v>
   <v>       0.46153846      -0.38461538       0.07692308 </v>
   <v>      -0.46153846      -0.38461538       0.07692308 </v>
   <v>      -0.38461538      -0.38461538       0.07692308 </v>
   <v>      -0.30769231      -0.38461538       0.07692308 </v>
   <v>      -0.23076923      -0.38461538       0.07692308 </v>
   <v>      -0.15384615      -0.38461538       0.07692308 </v>
   <v>      -0.07692308      -0.38461538       0.07692308 </v>
   <v>       0.00000000      -0.30769231       0.07692308 </v>
   <v>       0.07692308      -0.30769231       0.07692308 </v>
   <v>       0.15384615      -0.30769231       0.07692308 </v>
   <v>       0.23076923      -0.30769231       0.07692308 </v>
   <v>       0.30769231      -0.30769231       0.07692308 </v>
   <v>       0.38461538      -0.30769231       0.07692308 </v>
   <v>       0.46153846      -0.30769231       0.07692308 </v>
   <v>      -0.46153846      -0.30769231       0.07692308 </v>
   <v>      -0.38461538      -0.30769231       0.07692308 </v>
   <v>      -0.30769231      -0.30769231       0.07692308 </v>
   <v>      -0.23076923      -0.30769231       0.07692308 </v>
   <v>      -0.15384615      -0.30769231       0.07692308 </v>
   <v>      -0.07692308      -0.30769231       0.07692308 </v>
   <v>       0.00000000      -0.23076923       0.07692308 </v>
   <v>       0.07692308      -0.23076923       0.07692308 </v>
   <v>       0.15384615      -0.23076923       0.07692308 </v>
   <v>       0.23076923      -0.23076923       0.07692308 </v>
   <v>       0.30769231      -0.23076923       0.07692308 </v>
   <v>       0.38461538      -0.23076923       0.07692308 </v>
   <v>       0.46153846      -0.23076923       0.07692308 </v>
   <v>      -0.46153846      -0.23076923       0.07692308 </v>
   <v>      -0.38461538      -0.23076923       0.07692308 </v>
   <v>      -0.30769231      -0.23076923       0.07692308 </v>
   <v>      -0.23076923      -0.23076923       0.07692308 </v>
   <v>      -0.15384615      -0.23076923       0.07692308 </v>
   <v>      -0.07692308      -0.23076923       0.07692308 </v>
   <v>       0.00000000      -0.15384615       0.07692308 </v>
   <v>       0.07692308      -0.15384615       0.07692308 </v>
   <v>       0.15384615      -0.15384615       0.07692308 </v>
   <v>       0.23076923      -0.15384615       0.07692308 </v>
   <v>       0.30769231      -0.15384615       0.07692308 </v>
   <v>       0.38461538      -0.15384615       0.07692308 </v>
   <v>       0.46153846      -0.15384615       0.07692308 </v>
   <v>      -0.46153846      -0.15384615       0.07692308 </v>
   <v>      -0.38461538      -0.15384615       0.07692308 </v>
   <v>      -0.30769231      -0.15384615       0.07692308 </v>
   <v>      -0.23076923      -0.15384615       0.07692308 </v>
   <v>      -0.15384615      -0.15384615       0.07692308 </v>
   <v>      -0.07692308      -0.15384615       0.07692308 </v>
   <v>       0.00000000      -0.07692308       0.07692308 </v>
   <v>       0.07692308      -0.07692308       0.07692308 </v>
   <v>       0.15384615      -0.07692308       0.07692308 </v>
   <v>       0.23076923      -0.07692308       0.07692308 </v>
   <v>       0.30769231      -0.07692308       0.07692308 </v>
   <v>       0.38461538      -0.07692308       0.07692308 </v>
   <v>       0.46153846      -0.07692308       0.07692308 </v>
   <v>      -0.46153846      -0.07692308       0.07692308 </v>
   <v>      -0.38461538      -0.07692308       0.07692308 </v>
   <v>      -0.30769231      -0.07692308       0.07692308 </v>
   <v>      -0.23076923      -0.07692308       0.07692308 </v>
   <v>      -0.15384615      -0.07692308       0.07692308 </v>
   <v>      -0.07692308      -0.07692308       0.07692308 </v>
   <v>       0.00000000       0.00000000       0.15384615 </v>
   <v>       0.07692308      -0.00000000       0.15384615 </v>
   <v>       0.15384615       0.00000000       0.15384615 </v>
   <v>       0.23076923       0.00000000       0.15384615 </v>
   <v>       0.30769231       0.00000000       0.15384615 </v>
   <v>       0.38461538       0.00000000       0.15384615 </v>
   <v>       0.46153846      -0.00000000       0.15384615 </v>
   <v>      -0.46153846      -0.00000000       0.15384615 </v>
   <v>      -0.38461538       0.00000000       0.15384615 </v>
   <v>      -0.30769231       0.00000000       0.15384615 </v>
   <v>      -0.23076923       0.00000000       0.15384615 </v>
   <v>      -0.15384615      -0.00000000       0.15384615 </v>
   <v>      -0.07692308       0.00000000       0.15384615 </v>
   <v>       0.00000000       0.07692308       0.15384615 </v>
   <v>       0.07692308       0.07692308       0.15384615 </v>
   <v>       0.15384615       0.07692308       0.15384615 </v>
   <v>       0.23076923       0.07692308       0.15384615 </v>
   <v>       0.30769231       0.07692308       0.15384615 </v>
   <v>       0.38461538       0.07692308       0.15384615 </v>
   <v>       0.46153846       0.07692308       0.15384615 </v>
   <v>      -0.46153846       0.07692308       0.15384615 </v>
   <v>      -0.38461538       0.07692308       0.15384615 </v>
   <v>      -0.30769231       0.07692308       0.15384615 </v>
   <v>      -0.23076923       0.07692308       0.15384615 </v>
   <v>      -0.15384615       0.07692308       0.15384615 </v>
   <v>      -0.07692308       0.07692308       0.15384615 </v>
   <v>      -0.00000000       0.15384615       0.15384615 </v>
   <v>       0.07692308       0.15384615       0.15384615 </v>
   <v>       0.15384615       0.15384615       0.15384615 </v>
   <v>       0.23076923       0.15384615       0.15384615 </v>
   <v>       0.30769231       0.15384615       0.15384615 </v>
   <v>       0.38461538       0.15384615       0.15384615 </v>
   <v>       0.46153846       0.15384615       0.15384615 </v>
   <v>      -0.46153846       0.15384615       0.15384615 </v>
   <v>      -0.38461538       0.15384615       0.15384615 </v>
   <v>      -0.30769231       0.15384615       0.15384615 </v>
   <v>      -0.23076923       0.15384615       0.15384615 </v>
   <v>      -0.15384615       0.15384615       0.15384615 </v>
   <v>      -0.07692308       0.15384615       0.15384615 </v>
   <v>       0.00000000       0.23076923       0.15384615 </v>
   <v>       0.07692308       0.23076923       0.15384615 </v>
   <v>       0.15384615       0.23076923       0.15384615 </v>
   <v>       0.23076923       0.23076923       0.15384615 </v>
   <v>       0.30769231       0.23076923       0.15384615 </v>
   <v>       0.38461538       0.23076923       0.15384615 </v>
   <v>       0.46153846       0.23076923       0.15384615 </v>
   <v>      -0.46153846       0.23076923       0.15384615 </v>
   <v>      -0.38461538       0.23076923       0.15384615 </v>
   <v>      -0.30769231       0.23076923       0.15384615 </v>
   <v>      -0.23076923       0.23076923       0.15384615 </v>
   <v>      -0.15384615       0.23076923       0.15384615 </v>
   <v>      -0.07692308       0.23076923       0.15384615 </v>
   <v>       0.00000000       0.30769231       0.15384615 </v>
   <v>       0.07692308       0.30769231       0.15384615 </v>
   <v>       0.15384615       0.30769231       0.15384615 </v>
   <v>       0.23076923       0.30769231       0.15384615 </v>
   <v>       0.30769231       0.30769231       0.15384615 </v>
   <v>       0.38461538       0.30769231       0.15384615 </v>
   <v>       0.46153846       0.30769231       0.15384615 </v>
   <v>      -0.46153846       0.30769231       0.15384615 </v>
   <v>      -0.38461538       0.30769231       0.15384615 </v>
   <v>      -0.30769231       0.30769231       0.15384615 </v>
   <v>      -0.23076923       0.30769231       0.15384615 </v>
   <v>      -0.15384615       0.30769231       0.15384615 </v>
   <v>      -0.07692308       0.30769231       0.15384615 </v>
   <v>      -0.00000000       0.38461538       0.15384615 </v>
   <v>       0.07692308       0.38461538       0.15384615 </v>
   <v>       0.15384615       0.38461538       0.15384615 </v>
   <v>       0.23076923       0.38461538       0.15384615 </v>
   <v>       0.30769231       0.38461538       0.15384615 </v>
   <v>       0.38461538       0.38461538       0.15384615 </v>
   <v>       0.46153846       0.38461538       0.15384615 </v>
   <v>      -0.46153846       0.38461538       0.15384615 </v>
   <v>      -0.38461538       0.38461538       0.15384615 </v>
   <v>      -0.30769231       0.38461538       0.15384615 </v>
   <v>      -0.23076923       0.38461538       0.15384615 </v>
   <v>      -0.15384615       0.38461538       0.15384615 </v>
   <v>      -0.07692308       0.38461538       0.15384615 </v>
   <v>      -0.00000000       0.46153846       0.15384615 </v>
   <v>       0.07692308       0.46153846       0.15384615 </v>
   <v>       0.15384615       0.46153846       0.15384615 </v>
   <v>       0.23076923       0.46153846       0.15384615 </v>
   <v>       0.30769231       0.46153846       0.15384615 </v>
   <v>       0.38461538       0.46153846       0.15384615 </v>
   <v>       0.46153846       0.46153846       0.15384615 </v>
   <v>      -0.46153846       0.46153846       0.15384615 </v>
   <v>      -0.38461538       0.46153846       0.15384615 </v>
   <v>      -0.30769231       0.46153846       0.15384615 </v>
   <v>      -0.23076923       0.46153846       0.15384615 </v>
   <v>      -0.15384615       0.46153846       0.15384615 </v>
   <v>      -0.07692308       0.46153846       0.15384615 </v>
   <v>       0.00000000      -0.46153846       0.15384615 </v>
   <v>       0.07692308      -0.46153846       0.15384615 </v>
   <v>       0.15384615      -0.46153846       0.15384615 </v>
   <v>       0.23076923      -0.46153846       0.15384615 </v>
   <v>       0.30769231      -0.46153846       0.15384615 </v>
   <v>       0.38461538      -0.46153846       0.15384615 </v>
   <v>       0.46153846      -0.46153846       0.15384615 </v>
   <v>      -0.46153846      -0.46153846       0.15384615 </v>
   <v>      -0.38461538      -0.46153846       0.15384615 </v>
   <v>      -0.30769231      -0.46153846       0.15384615 </v>
   <v>      -0.23076923      -0.46153846       0.15384615 </v>
   <v>      -0.15384615      -0.46153846       0.15384615 </v>
   <v>      -0.07692308      -0.46153846       0.15384615 </v>
   <v>       0.00000000      -0.38461538       0.15384615 </v>
   <v>       0.07692308      -0.38461538       0.15384615 </v>
   <v>       0.15384615      -0.38461538       0.15384615 </v>
   <v>       0.23076923      -0.38461538       0.15384615 </v>
   <v>       0.30769231      -0.38461538       0.15384615 </v>
   <v>       0.38461538      -0.38461538       0.15384615 </v>
   <v>       0.46153846      -0.38461538       0.15384615 </v>
   <v>      -0.46153846      -0.38461538       0.15384615 </v>
   <v>      -0.38461538      -0.38461538       0.15384615 </v>
   <v>      -0.30769231      -0.38461538       0.15384615 </v>
   <v>      -0.23076923      -0.38461538       0.15384615 </v>
   <v>      -0.15384615      -0.38461538       0.15384615 </v>
   <v>      -0.07692308      -0.38461538       0.15384615 </v>
   <v>       0.00000000      -0.30769231       0.15384615 </v>
   <v>       0.07692308      -0.30769231       0.15384615 </v>
   <v>       0.15384615      -0.30769231       0.15384615 </v>
   <v>       0.23076923      -0.30769231       0.15384615 </v>
   <v>       0.30769231      -0.30769231       0.15384615 </v>
   <v>       0.38461538      -0.30769231       0.15384615 </v>
   <v>       0.46153846      -0.30769231       0.15384615 </v>
   <v>      -0.46153846      -0.30769231       0.15384615 </v>
   <v>      -0.38461538      -0.30769231       0.15384615 </v>
   <v>      -0.30769231      -0.30769231       0.15384615 </v>
   <v>      -0.23076923      -0.30769231       0.15384615 </v>
   <v>      -0.15384615      -0.30769231       0.15384615 </v>
   <v>      -0.07692308      -0.30769231       0.15384615 </v>
   <v>       0.00000000      -0.23076923       0.15384615 </v>
   <v>       0.07692308      -0.23076923       0.15384615 </v>
   <v>       0.15384615      -0.23076923       0.15384615 </v>
   <v>       0.23076923      -0.23076923       0.15384615 </v>
   <v>       0.30769231      -0.23076923       0.15384615 </v>
   <v>       0.38461538      -0.23076923       0.15384615 </v>
   <v>       0.46153846      -0.23076923       0.15384615 </v>
   <v>      -0.46153846      -0.23076923       0.15384615 </v>
   <v>      -0.38461538      -0.23076923       0.15384615 </v>
   <v>      -0.30769231      -0.23076923       0.15384615 </v>
   <v>      -0.23076923      -0.23076923       0.15384615 </v>
   <v>      -0.15384615      -0.23076923       0.15384615 </v>
   <v>      -0.07692308      -0.23076923       0.15384615 </v>
   <v>       0.00000000      -0.15384615       0.15384615 </v>
   <v>       0.07692308      -0.15384615       0.15384615 </v>
   <v>       0.15384615      -0.15384615       0.15384615 </v>
   <v>       0.23076923      -0.15384615       0.15384615 </v>
   <v>       0.30769231      -0.15384615       0.15384615 </v>
   <v>       0.38461538      -0.15384615       0.15384615 </v>
   <v>       0.46153846      -0.15384615       0.15384615 </v>
   <v>      -0.46153846      -0.15384615       0.15384615 </v>
   <v>      -0.38461538      -0.15384615       0.15384615 </v>
   <v>      -0.30769231      -0.15384615       0.15384615 </v>
   <v>      -0.23076923      -0.15384615       0.15384615 </v>
   <v>      -0.15384615      -0.15384615       0.15384615 </v>
   <v>      -0.07692308      -0.15384615       0.15384615 </v>
   <v>       0.00000000      -0.07692308       0.15384615 </v>
   <v>       0.07692308      -0.07692308       0.15384615 </v>
   <v>       0.15384615      -0.07692308       0.15384615 </v>
   <v>       0.23076923      -0.07692308       0.15384615 </v>
   <v>       0.30769231      -0.07692308       0.15384615 </v>
   <v>       0.38461538      -0.07692308       0.15384615 </v>
   <v>       0.46153846      -0.07692308       0.15384615 </v>
   <v>      -0.46153846      -0.07692308       0.15384615 </v>
   <v>      -0.38461538      -0.07692308       0.15384615 </v>
   <v>      -0.30769231      -0.07692308       0.15384615 </v>
   <v>      -0.23076923      -0.07692308       0.15384615 </v>
   <v>      -0.15384615      -0.07692308       0.15384615 </v>
   <v>      -0.07692308      -0.07692308       0.15384615 </v>
   <v>       0.00000000       0.00000000       0.23076923 </v>
   <v>       0.07692308      -0.00000000       0.23076923 </v>
   <v>       0.15384615      -0.00000000       0.23076923 </v>
   <v>       0.23076923      -0.00000000       0.23076923 </v>
   <v>       0.30769231       0.00000000       0.23076923 </v>
   <v>       0.38461538       0.00000000       0.23076923 </v>
   <v>       0.46153846      -0.00000000       0.23076923 </v>
   <v>      -0.46153846      -0.00000000       0.23076923 </v>
   <v>      -0.38461538       0.00000000       0.23076923 </v>
   <v>      -0.30769231       0.00000000       0.23076923 </v>
   <v>      -0.23076923      -0.00000000       0.23076923 </v>
   <v>      -0.15384615      -0.00000000       0.23076923 </v>
   <v>      -0.07692308       0.00000000       0.23076923 </v>
   <v>      -0.00000000       0.07692308       0.23076923 </v>
   <v>       0.07692308       0.07692308       0.23076923 </v>
   <v>       0.15384615       0.07692308       0.23076923 </v>
   <v>       0.23076923       0.07692308       0.23076923 </v>
   <v>       0.30769231       0.07692308       0.23076923 </v>
   <v>       0.38461538       0.07692308       0.23076923 </v>
   <v>       0.46153846       0.07692308       0.23076923 </v>
   <v>      -0.46153846       0.07692308       0.23076923 </v>
   <v>      -0.38461538       0.07692308       0.23076923 </v>
   <v>      -0.30769231       0.07692308       0.23076923 </v>
   <v>      -0.23076923       0.07692308       0.23076923 </v>
   <v>      -0.15384615       0.07692308       0.23076923 </v>
   <v>      -0.07692308       0.07692308       0.23076923 </v>
   <v>       0.00000000       0.15384615       0.23076923 </v>
   <v>       0.07692308       0.15384615       0.23076923 </v>
   <v>       0.15384615       0.15384615       0.23076923 </v>
   <v>       0.23076923       0.15384615       0.23076923 </v>
   <v>       0.30769231       0.15384615       0.23076923 </v>
   <v>       0.38461538       0.15384615       0.23076923 </v>
   <v>       0.46153846       0.15384615       0.23076923 </v>
   <v>      -0.46153846       0.15384615       0.23076923 </v>
   <v>      -0.38461538       0.15384615       0.23076923 </v>
   <v>      -0.30769231       0.15384615       0.23076923 </v>
   <v>      -0.23076923       0.15384615       0.23076923 </v>
   <v>      -0.15384615       0.15384615       0.23076923 </v>
   <v>      -0.07692308       0.15384615       0.23076923 </v>
   <v>      -0.00000000       0.23076923       0.23076923 </v>
   <v>       0.07692308       0.23076923       0.23076923 </v>
   <v>       0.15384615       0.23076923       0.23076923 </v>
   <v>       0.23076923       0.23076923       0.23076923 </v>
   <v>       0.30769231       0.23076923       0.23076923 </v>
   <v>       0.38461538       0.23076923       0.23076923 </v>
   <v>       0.46153846       0.23076923       0.23076923 </v>
   <v>      -0.46153846       0.23076923       0.23076923 </v>
   <v>      -0.38461538       0.23076923       0.23076923 </v>
   <v>      -0.30769231       0.23076923       0.23076923 </v>
   <v>      -0.23076923       0.23076923       0.23076923 </v>
   <v>      -0.15384615       0.23076923       0.23076923 </v>
   <v>      -0.07692308       0.23076923       0.23076923 </v>
   <v>      -0.00000000       0.30769231       0.23076923 </v>
   <v>       0.07692308       0.30769231       0.23076923 </v>
   <v>       0.15384615       0.30769231       0.23076923 </v>
   <v>       0.23076923       0.30769231       0.23076923 </v>
   <v>       0.30769231       0.30769231       0.23076923 </v>
   <v>       0.38461538       0.30769231       0.23076923 </v>
   <v>       0.46153846       0.30769231       0.23076923 </v>
   <v>      -0.46153846       0.30769231       0.23076923 </v>
   <v>      -0.38461538       0.30769231       0.23076923 </v>
   <v>      -0.30769231       0.30769231       0.23076923 </v>
   <v>      -0.23076923       0.30769231       0.23076923 </v>
   <v>      -0.15384615       0.30769231       0.23076923 </v>
   <v>      -0.07692308       0.30769231       0.23076923 </v>
   <v>      -0.00000000       0.38461538       0.23076923 </v>
   <v>       0.07692308       0.38461538       0.23076923 </v>
   <v>       0.15384615       0.38461538       0.23076923 </v>
   <v>       0.23076923       0.38461538       0.23076923 </v>
   <v>       0.30769231       0.38461538       0.23076923 </v>
   <v>       0.38461538       0.38461538       0.23076923 </v>
   <v>       0.46153846       0.38461538       0.23076923 </v>
   <v>      -0.46153846       0.38461538       0.23076923 </v>
   <v>      -0.38461538       0.38461538       0.23076923 </v>
   <v>      -0.30769231       0.38461538       0.23076923 </v>
   <v>      -0.23076923       0.38461538       0.23076923 </v>
   <v>      -0.15384615       0.38461538       0.23076923 </v>
   <v>      -0.07692308       0.38461538       0.23076923 </v>
   <v>       0.00000000       0.46153846       0.23076923 </v>
   <v>       0.07692308       0.46153846       0.23076923 </v>
   <v>       0.15384615       0.46153846       0.23076923 </v>
   <v>       0.23076923       0.46153846       0.23076923 </v>
   <v>       0.30769231       0.46153846       0.23076923 </v>
   <v>       0.38461538       0.46153846       0.23076923 </v>
   <v>       0.46153846       0.46153846       0.23076923 </v>
   <v>      -0.46153846       0.46153846       0.23076923 </v>
   <v>      -0.38461538       0.46153846       0.23076923 </v>
   <v>      -0.30769231       0.46153846       0.23076923 </v>
   <v>      -0.23076923       0.46153846       0.23076923 </v>
   <v>      -0.15384615       0.46153846       0.23076923 </v>
   <v>      -0.07692308       0.46153846       0.23076923 </v>
   <v>      -0.00000000      -0.46153846       0.23076923 </v>
   <v>       0.07692308      -0.46153846       0.23076923 </v>
   <v>       0.15384615      -0.46153846       0.23076923 </v>
   <v>       0.23076923      -0.46153846       0.23076923 </v>
   <v>       0.30769231      -0.46153846       0.23076923 </v>
   <v>       0.38461538      -0.46153846       0.23076923 </v>
   <v>       0.46153846      -0.46153846       0.23076923 </v>
   <v>      -0.46153846      -0.46153846       0.23076923 </v>
   <v>      -0.38461538      -0.46153846       0.23076923 </v>
   <v>      -0.30769231      -0.46153846       0.23076923 </v>
   <v>      -0.23076923      -0.46153846       0.23076923 </v>
   <v>      -0.15384615      -0.46153846       0.23076923 </v>
   <v>      -0.07692308      -0.46153846       0.23076923 </v>
   <v>       0.00000000      -0.38461538       0.23076923 </v>
   <v>       0.07692308      -0.38461538       0.23076923 </v>
   <v>       0.15384615      -0.38461538       0.23076923 </v>
   <v>       0.23076923      -0.38461538       0.23076923 </v>
   <v>       0.30769231      -0.38461538       0.23076923 </v>
   <v>       0.38461538      -0.38461538       0.23076923 </v>
   <v>       0.46153846      -0.38461538       0.23076923 </v>
   <v>      -0.46153846      -0.38461538       0.23076923 </v>
   <v>      -0.38461538      -0.38461538       0.23076923 </v>
   <v>      -0.30769231      -0.38461538       0.23076923 </v>
   <v>      -0.23076923      -0.38461538       0.23076923 </v>
   <v>      -0.15384615      -0.38461538       0.23076923 </v>
   <v>      -0.07692308      -0.38461538       0.23076923 </v>
   <v>       0.00000000      -0.30769231       0.23076923 </v>
   <v>       0.07692308      -0.30769231       0.23076923 </v>
   <v>       0.15384615      -0.30769231       0.23076923 </v>
   <v>       0.23076923      -0.30769231       0.23076923 </v>
   <v>       0.30769231      -0.30769231       0.23076923 </v>
   <v>       0.38461538      -0.30769231       0.23076923 </v>
   <v>       0.46153846      -0.30769231       0.23076923 </v>
   <v>      -0.46153846      -0.30769231       0.23076923 </v>
   <v>      -0.38461538      -0.30769231       0.23076923 </v>
   <v>      -0.30769231      -0.30769231       0.23076923 </v>
   <v>      -0.23076923      -0.30769231       0.23076923 </v>
   <v>      -0.15384615      -0.30769231       0.23076923 </v>
   <v>      -0.07692308      -0.30769231       0.23076923 </v>
   <v>       0.00000000      -0.23076923       0.23076923 </v>
   <v>       0.07692308      -0.23076923       0.23076923 </v>
   <v>       0.15384615      -0.23076923       0.23076923 </v>
   <v>       0.23076923      -0.23076923       0.23076923 </v>
   <v>       0.30769231      -0.23076923       0.23076923 </v>
   <v>       0.38461538      -0.23076923       0.23076923 </v>
   <v>       0.46153846      -0.23076923       0.23076923 </v>
   <v>      -0.46153846      -0.23076923       0.23076923 </v>
   <v>      -0.38461538      -0.23076923       0.23076923 </v>
   <v>      -0.30769231      -0.23076923       0.23076923 </v>
   <v>      -0.23076923      -0.23076923       0.23076923 </v>
   <v>      -0.15384615      -0.23076923       0.23076923 </v>
   <v>      -0.07692308      -0.23076923       0.23076923 </v>
   <v>       0.00000000      -0.15384615       0.23076923 </v>
   <v>       0.07692308      -0.15384615       0.23076923 </v>
   <v>       0.15384615      -0.15384615       0.23076923 </v>
   <v>       0.23076923      -0.15384615       0.23076923 </v>
   <v>       0.30769231      -0.15384615       0.23076923 </v>
   <v>       0.38461538      -0.15384615       0.23076923 </v>
   <v>       0.46153846      -0.15384615       0.23076923 </v>
   <v>      -0.46153846      -0.15384615       0.23076923 </v>
   <v>      -0.38461538      -0.15384615       0.23076923 </v>
   <v>      -0.30769231      -0.15384615       0.23076923 </v>
   <v>      -0.23076923      -0.15384615       0.23076923 </v>
   <v>      -0.15384615      -0.15384615       0.23076923 </v>
   <v>      -0.07692308      -0.15384615       0.23076923 </v>
   <v>       0.00000000      -0.07692308       0.23076923 </v>
   <v>       0.07692308      -0.07692308       0.23076923 </v>
   <v>       0.15384615      -0.07692308       0.23076923 </v>
   <v>       0.23076923      -0.07692308       0.23076923 </v>
   <v>       0.30769231      -0.07692308       0.23076923 </v>
   <v>       0.38461538      -0.07692308       0.23076923 </v>
   <v>       0.46153846      -0.07692308       0.23076923 </v>
   <v>      -0.46153846      -0.07692308       0.23076923 </v>
   <v>      -0.38461538      -0.07692308       0.23076923 </v>
   <v>      -0.30769231      -0.07692308       0.23076923 </v>
   <v>      -0.23076923      -0.07692308       0.23076923 </v>
   <v>      -0.15384615      -0.07692308       0.23076923 </v>
   <v>      -0.07692308      -0.07692308       0.23076923 </v>
   <v>       0.00000000      -0.00000000       0.30769231 </v>
   <v>       0.07692308      -0.00000000       0.30769231 </v>
   <v>       0.15384615      -0.00000000       0.30769231 </v>
   <v>       0.23076923      -0.00000000       0.30769231 </v>
   <v>       0.30769231       0.00000000       0.30769231 </v>
   <v>       0.38461538      -0.00000000       0.30769231 </v>
   <v>       0.46153846      -0.00000000       0.30769231 </v>
   <v>      -0.46153846      -0.00000000       0.30769231 </v>
   <v>      -0.38461538       0.00000000       0.30769231 </v>
   <v>      -0.30769231       0.00000000       0.30769231 </v>
   <v>      -0.23076923       0.00000000       0.30769231 </v>
   <v>      -0.15384615       0.00000000       0.30769231 </v>
   <v>      -0.07692308      -0.00000000       0.30769231 </v>
   <v>       0.00000000       0.07692308       0.30769231 </v>
   <v>       0.07692308       0.07692308       0.30769231 </v>
   <v>       0.15384615       0.07692308       0.30769231 </v>
   <v>       0.23076923       0.07692308       0.30769231 </v>
   <v>       0.30769231       0.07692308       0.30769231 </v>
   <v>       0.38461538       0.07692308       0.30769231 </v>
   <v>       0.46153846       0.07692308       0.30769231 </v>
   <v>      -0.46153846       0.07692308       0.30769231 </v>
   <v>      -0.38461538       0.07692308       0.30769231 </v>
   <v>      -0.30769231       0.07692308       0.30769231 </v>
   <v>      -0.23076923       0.07692308       0.30769231 </v>
   <v>      -0.15384615       0.07692308       0.30769231 </v>
   <v>      -0.07692308       0.07692308       0.30769231 </v>
   <v>       0.00000000       0.15384615       0.30769231 </v>
   <v>       0.07692308       0.15384615       0.30769231 </v>
   <v>       0.15384615       0.15384615       0.30769231 </v>
   <v>       0.23076923       0.15384615       0.30769231 </v>
   <v>       0.30769231       0.15384615       0.30769231 </v>
   <v>       0.38461538       0.15384615       0.30769231 </v>
   <v>       0.46153846       0.15384615       0.30769231 </v>
   <v>      -0.46153846       0.15384615       0.30769231 </v>
   <v>      -0.38461538       0.15384615       0.30769231 </v>
   <v>      -0.30769231       0.15384615       0.30769231 </v>
   <v>      -0.23076923       0.15384615       0.30769231 </v>
   <v>      -0.15384615       0.15384615       0.30769231 </v>
   <v>      -0.07692308       0.15384615       0.30769231 </v>
   <v>       0.00000000       0.23076923       0.30769231 </v>
   <v>       0.07692308       0.23076923       0.30769231 </v>
   <v>       0.15384615       0.23076923       0.30769231 </v>
   <v>       0.23076923       0.23076923       0.30769231 </v>
   <v>       0.30769231       0.23076923       0.30769231 </v>
   <v>       0.38461538       0.23076923       0.30769231 </v>
   <v>       0.46153846       0.23076923       0.30769231 </v>
   <v>      -0.46153846       0.23076923       0.30769231 </v>
   <v>      -0.38461538       0.23076923       0.30769231 </v>
   <v>      -0.30769231       0.23076923       0.30769231 </v>
   <v>      -0.23076923       0.23076923       0.30769231 </v>
   <v>      -0.15384615       0.23076923       0.30769231 </v>
   <v>      -0.07692308       0.23076923       0.30769231 </v>
   <v>       0.00000000       0.30769231       0.30769231 </v>
   <v>       0.07692308       0.30769231       0.30769231 </v>
   <v>       0.15384615       0.30769231       0.30769231 </v>
   <v>       0.23076923       0.30769231       0.30769231 </v>
   <v>       0.30769231       0.30769231       0.30769231 </v>
   <v>       0.38461538       0.30769231       0.30769231 </v>
   <v>       0.46153846       0.30769231       0.30769231 </v>
   <v>      -0.46153846       0.30769231       0.30769231 </v>
   <v>      -0.38461538       0.30769231       0.30769231 </v>
   <v>      -0.30769231       0.30769231       0.30769231 </v>
   <v>      -0.23076923       0.30769231       0.30769231 </v>
   <v>      -0.15384615       0.30769231       0.30769231 </v>
   <v>      -0.07692308       0.30769231       0.30769231 </v>
   <v>       0.00000000       0.38461538       0.30769231 </v>
   <v>       0.07692308       0.38461538       0.30769231 </v>
   <v>       0.15384615       0.38461538       0.30769231 </v>
   <v>       0.23076923       0.38461538       0.30769231 </v>
   <v>       0.30769231       0.38461538       0.30769231 </v>
   <v>       0.38461538       0.38461538       0.30769231 </v>
   <v>       0.46153846       0.38461538       0.30769231 </v>
   <v>      -0.46153846       0.38461538       0.30769231 </v>
   <v>      -0.38461538       0.38461538       0.30769231 </v>
   <v>      -0.30769231       0.38461538       0.30769231 </v>
   <v>      -0.23076923       0.38461538       0.30769231 </v>
   <v>      -0.15384615       0.38461538       0.30769231 </v>
   <v>      -0.07692308       0.38461538       0.30769231 </v>
   <v>      -0.00000000       0.46153846       0.30769231 </v>
   <v>       0.07692308       0.46153846       0.30769231 </v>
   <v>       0.15384615       0.46153846       0.30769231 </v>
   <v>       0.23076923       0.46153846       0.30769231 </v>
   <v>       0.30769231       0.46153846       0.30769231 </v>
   <v>       0.38461538       0.46153846       0.30769231 </v>
   <v>       0.46153846       0.46153846       0.30769231 </v>
   <v>      -0.46153846       0.46153846       0.30769231 </v>
   <v>      -0.38461538       0.46153846       0.30769231 </v>
   <v>      -0.30769231       0.46153846       0.30769231 </v>
   <v>      -0.23076923       0.46153846       0.30769231 </v>
   <v>      -0.15384615       0.46153846       0.30769231 </v>
   <v>      -0.07692308       0.46153846       0.30769231 </v>
   <v>       0.00000000      -0.46153846       0.30769231 </v>
   <v>       0.07692308      -0.46153846       0.30769231 </v>
   <v>       0.15384615      -0.46153846       0.30769231 </v>
   <v>       0.23076923      -0.46153846       0.30769231 </v>
   <v>       0.30769231      -0.46153846       0.30769231 </v>
   <v>       0.38461538      -0.46153846       0.30769231 </v>
   <v>       0.46153846      -0.46153846       0.30769231 </v>
   <v>      -0.46153846      -0.46153846       0.30769231 </v>
   <v>      -0.38461538      -0.46153846       0.30769231 </v>
   <v>      -0.30769231      -0.46153846       0.30769231 </v>
   <v>      -0.23076923      -0.46153846       0.30769231 </v>
   <v>      -0.15384615      -0.46153846       0.30769231 </v>
   <v>      -0.07692308      -0.46153846       0.30769231 </v>
   <v>       0.00000000      -0.38461538       0.30769231 </v>
   <v>       0.07692308      -0.38461538       0.30769231 </v>
   <v>       0.15384615      -0.38461538       0.30769231 </v>
   <v>       0.23076923      -0.38461538       0.30769231 </v>
   <v>       0.30769231      -0.38461538       0.30769231 </v>
   <v>       0.38461538      -0.38461538       0.30769231 </v>
   <v>       0.46153846      -0.38461538       0.30769231 </v>
   <v>      -0.46153846      -0.38461538       0.30769231 </v>
   <v>      -0.38461538      -0.38461538       0.30769231 </v>
   <v>      -0.30769231      -0.38461538       0.30769231 </v>
   <v>      -0.23076923      -0.38461538       0.30769231 </v>
   <v>      -0.15384615      -0.38461538       0.30769231 </v>
   <v>      -0.07692308      -0.38461538       0.30769231 </v>
   <v>       0.00000000      -0.30769231       0.30769231 </v>
   <v>       0.07692308      -0.30769231       0.30769231 </v>
   <v>       0.15384615      -0.30769231       0.30769231 </v>
   <v>       0.23076923      -0.30769231       0.30769231 </v>
   <v>       0.30769231      -0.30769231       0.30769231 </v>
   <v>       0.38461538      -0.30769231       0.30769231 </v>
   <v>       0.46153846      -0.30769231       0.30769231 </v>
   <v>      -0.46153846      -0.30769231       0.30769231 </v>
   <v>      -0.38461538      -0.30769231       0.30769231 </v>
   <v>      -0.30769231      -0.30769231       0.30769231 </v>
   <v>      -0.23076923      -0.30769231       0.30769231 </v>
   <v>      -0.15384615      -0.30769231       0.30769231 </v>
   <v>      -0.07692308      -0.30769231       0.30769231 </v>
   <v>       0.00000000      -0.23076923       0.30769231 </v>
   <v>       0.07692308      -0.23076923       0.30769231 </v>
   <v>       0.15384615      -0.23076923       0.30769231 </v>
   <v>       0.23076923      -0.23076923       0.30769231 </v>
   <v>       0.30769231      -0.23076923       0.30769231 </v>
   <v>       0.38461538      -0.23076923       0.30769231 </v>
   <v>       0.46153846      -0.23076923       0.30769231 </v>
   <v>      -0.46153846      -0.23076923       0.30769231 </v>
   <v>      -0.38461538      -0.23076923       0.30769231 </v>
   <v>      -0.30769231      -0.23076923       0.30769231 </v>
   <v>      -0.23076923      -0.23076923       0.30769231 </v>
   <v>      -0.15384615      -0.23076923       0.30769231 </v>
   <v>      -0.07692308      -0.23076923       0.30769231 </v>
   <v>       0.00000000      -0.15384615       0.30769231 </v>
   <v>       0.07692308      -0.15384615       0.30769231 </v>
   <v>       0.15384615      -0.15384615       0.30769231 </v>
   <v>       0.23076923      -0.15384615       0.30769231 </v>
   <v>       0.30769231      -0.15384615       0.30769231 </v>
   <v>       0.38461538      -0.15384615       0.30769231 </v>
   <v>       0.46153846      -0.15384615       0.30769231 </v>
   <v>      -0.46153846      -0.15384615       0.30769231 </v>
   <v>      -0.38461538      -0.15384615       0.30769231 </v>
   <v>      -0.30769231      -0.15384615       0.30769231 </v>
   <v>      -0.23076923      -0.15384615       0.30769231 </v>
   <v>      -0.15384615      -0.15384615       0.30769231 </v>
   <v>      -0.07692308      -0.15384615       0.30769231 </v>
   <v>       0.00000000      -0.07692308       0.30769231 </v>
   <v>       0.07692308      -0.07692308       0.30769231 </v>
   <v>       0.15384615      -0.07692308       0.30769231 </v>
   <v>       0.23076923      -0.07692308       0.30769231 </v>
   <v>       0.30769231      -0.07692308       0.30769231 </v>
   <v>       0.38461538      -0.07692308       0.30769231 </v>
   <v>       0.46153846      -0.07692308       0.30769231 </v>
   <v>      -0.46153846      -0.07692308       0.30769231 </v>
   <v>      -0.38461538      -0.07692308       0.30769231 </v>
   <v>      -0.30769231      -0.07692308       0.30769231 </v>
   <v>      -0.23076923      -0.07692308       0.30769231 </v>
   <v>      -0.15384615      -0.07692308       0.30769231 </v>
   <v>      -0.07692308      -0.07692308       0.30769231 </v>
   <v>       0.00000000      -0.00000000       0.38461538 </v>
   <v>       0.07692308      -0.00000000       0.38461538 </v>
   <v>       0.15384615      -0.00000000       0.38461538 </v>
   <v>       0.23076923      -0.00000000       0.38461538 </v>
   <v>       0.30769231       0.00000000       0.38461538 </v>
   <v>       0.38461538      -0.00000000       0.38461538 </v>
   <v>       0.46153846      -0.00000000       0.38461538 </v>
   <v>      -0.46153846      -0.00000000       0.38461538 </v>
   <v>      -0.38461538      -0.00000000       0.38461538 </v>
   <v>      -0.30769231       0.00000000       0.38461538 </v>
   <v>      -0.23076923       0.00000000       0.38461538 </v>
   <v>      -0.15384615      -0.00000000       0.38461538 </v>
   <v>      -0.07692308      -0.00000000       0.38461538 </v>
   <v>       0.00000000       0.07692308       0.38461538 </v>
   <v>       0.07692308       0.07692308       0.38461538 </v>
   <v>       0.15384615       0.07692308       0.38461538 </v>
   <v>       0.23076923       0.07692308       0.38461538 </v>
   <v>       0.30769231       0.07692308       0.38461538 </v>
   <v>       0.38461538       0.07692308       0.38461538 </v>
   <v>       0.46153846       0.07692308       0.38461538 </v>
   <v>      -0.46153846       0.07692308       0.38461538 </v>
   <v>      -0.38461538       0.07692308       0.38461538 </v>
   <v>      -0.30769231       0.07692308       0.38461538 </v>
   <v>      -0.23076923       0.07692308       0.38461538 </v>
   <v>      -0.15384615       0.07692308       0.38461538 </v>
   <v>      -0.07692308       0.07692308       0.38461538 </v>
   <v>       0.00000000       0.15384615       0.38461538 </v>
   <v>       0.07692308       0.15384615       0.38461538 </v>
   <v>       0.15384615       0.15384615       0.38461538 </v>
   <v>       0.23076923       0.15384615       0.38461538 </v>
   <v>       0.30769231       0.15384615       0.38461538 </v>
   <v>       0.38461538       0.15384615       0.38461538 </v>
   <v>       0.46153846       0.15384615       0.38461538 </v>
   <v>      -0.46153846       0.15384615       0.38461538 </v>
   <v>      -0.38461538       0.15384615       0.38461538 </v>
   <v>      -0.30769231       0.15384615       0.38461538 </v>
   <v>      -0.23076923       0.15384615       0.38461538 </v>
   <v>      -0.15384615       0.15384615       0.38461538 </v>
   <v>      -0.07692308       0.15384615       0.38461538 </v>
   <v>       0.00000000       0.23076923       0.38461538 </v>
   <v>       0.07692308       0.23076923       0.38461538 </v>
   <v>       0.15384615       0.23076923       0.38461538 </v>
   <v>       0.23076923       0.23076923       0.38461538 </v>
   <v>       0.30769231       0.23076923       0.38461538 </v>
   <v>       0.38461538       0.23076923       0.38461538 </v>
   <v>       0.46153846       0.23076923       0.38461538 </v>
   <v>      -0.46153846       0.23076923       0.38461538 </v>
   <v>      -0.38461538       0.23076923       0.38461538 </v>
   <v>      -0.30769231       0.23076923       0.38461538 </v>
   <v>      -0.23076923       0.23076923       0.38461538 </v>
   <v>      -0.15384615       0.23076923       0.38461538 </v>
   <v>      -0.07692308       0.23076923       0.38461538 </v>
   <v>       0.00000000       0.30769231       0.38461538 </v>
   <v>       0.07692308       0.30769231       0.38461538 </v>
   <v>       0.15384615       0.30769231       0.38461538 </v>
   <v>       0.23076923       0.30769231       0.38461538 </v>
   <v>       0.30769231       0.30769231       0.38461538 </v>
   <v>       0.38461538       0.30769231       0.38461538 </v>
   <v>       0.46153846       0.30769231       0.38461538 </v>
   <v>      -0.46153846       0.30769231       0.38461538 </v>
   <v>      -0.38461538       0.30769231       0.38461538 </v>
   <v>      -0.30769231       0.30769231       0.38461538 </v>
   <v>      -0.23076923       0.30769231       0.38461538 </v>
   <v>      -0.15384615       0.30769231       0.38461538 </v>
   <v>      -0.07692308       0.30769231       0.38461538 </v>
   <v>       0.00000000       0.38461538       0.38461538 </v>
   <v>       0.07692308       0.38461538       0.38461538 </v>
   <v>       0.15384615       0.38461538       0.38461538 </v>
   <v>       0.23076923       0.38461538       0.38461538 </v>
   <v>       0.30769231       0.38461538       0.38461538 </v>
   <v>       0.38461538       0.38461538       0.38461538 </v>
   <v>       0.46153846       0.38461538       0.38461538 </v>
   <v>      -0.46153846       0.38461538       0.38461538 </v>
   <v>      -0.38461538       0.38461538       0.38461538 </v>
   <v>      -0.30769231       0.38461538       0.38461538 </v>
   <v>      -0.23076923       0.38461538       0.38461538 </v>
   <v>      -0.15384615       0.38461538       0.38461538 </v>
   <v>      -0.07692308       0.38461538       0.38461538 </v>
   <v>       0.00000000       0.46153846       0.38461538 </v>
   <v>       0.07692308       0.46153846       0.38461538 </v>
   <v>       0.15384615       0.46153846       0.38461538 </v>
   <v>       0.23076923       0.46153846       0.38461538 </v>
   <v>       0.30769231       0.46153846       0.38461538 </v>
   <v>       0.38461538       0.46153846       0.38461538 </v>
   <v>       0.46153846       0.46153846       0.38461538 </v>
   <v>      -0.46153846       0.46153846       0.38461538 </v>
   <v>      -0.38461538       0.46153846       0.38461538 </v>
   <v>      -0.30769231       0.46153846       0.38461538 </v>
   <v>      -0.23076923       0.46153846       0.38461538 </v>
   <v>      -0.15384615       0.46153846       0.38461538 </v>
   <v>      -0.07692308       0.46153846       0.38461538 </v>
   <v>       0.00000000      -0.46153846       0.38461538 </v>
   <v>       0.07692308      -0.46153846       0.38461538 </v>
   <v>       0.15384615      -0.46153846       0.38461538 </v>
   <v>       0.23076923      -0.46153846       0.38461538 </v>
   <v>       0.30769231      -0.46153846       0.38461538 </v>
   <v>       0.38461538      -0.46153846       0.38461538 </v>
   <v>       0.46153846      -0.46153846       0.38461538 </v>
   <v>      -0.46153846      -0.46153846       0.38461538 </v>
   <v>      -0.38461538      -0.46153846       0.38461538 </v>
   <v>      -0.30769231      -0.46153846       0.38461538 </v>
   <v>      -0.23076923      -0.46153846       0.38461538 </v>
   <v>      -0.15384615      -0.46153846       0.38461538 </v>
   <v>      -0.07692308      -0.46153846       0.38461538 </v>
   <v>       0.00000000      -0.38461538       0.38461538 </v>
   <v>       0.07692308      -0.38461538       0.38461538 </v>
   <v>       0.15384615      -0.38461538       0.38461538 </v>
   <v>       0.23076923      -0.38461538       0.38461538 </v>
   <v>       0.30769231      -0.38461538       0.38461538 </v>
   <v>       0.38461538      -0.38461538       0.38461538 </v>
   <v>       0.46153846      -0.38461538       0.38461538 </v>
   <v>      -0.46153846      -0.38461538       0.38461538 </v>
   <v>      -0.38461538      -0.38461538       0.38461538 </v>
   <v>      -0.30769231      -0.38461538       0.38461538 </v>
   <v>      -0.23076923      -0.38461538       0.38461538 </v>
   <v>      -0.15384615      -0.38461538       0.38461538 </v>
   <v>      -0.07692308      -0.38461538       0.38461538 </v>
   <v>       0.00000000      -0.30769231       0.38461538 </v>
   <v>       0.07692308      -0.30769231       0.38461538 </v>
   <v>       0.15384615      -0.30769231       0.38461538 </v>
   <v>       0.23076923      -0.30769231       0.38461538 </v>
   <v>       0.30769231      -0.30769231       0.38461538 </v>
   <v>       0.38461538      -0.30769231       0.38461538 </v>
   <v>       0.46153846      -0.30769231       0.38461538 </v>
   <v>      -0.46153846      -0.30769231       0.38461538 </v>
   <v>      -0.38461538      -0.30769231       0.38461538 </v>
   <v>      -0.30769231      -0.30769231       0.38461538 </v>
   <v>      -0.23076923      -0.30769231       0.38461538 </v>
   <v>      -0.15384615      -0.30769231       0.38461538 </v>
   <v>      -0.07692308      -0.30769231       0.38461538 </v>
   <v>       0.00000000      -0.23076923       0.38461538 </v>
   <v>       0.07692308      -0.23076923       0.38461538 </v>
   <v>       0.15384615      -0.23076923       0.38461538 </v>
   <v>       0.23076923      -0.23076923       0.38461538 </v>
   <v>       0.30769231      -0.23076923       0.38461538 </v>
   <v>       0.38461538      -0.23076923       0.38461538 </v>
   <v>       0.46153846      -0.23076923       0.38461538 </v>
   <v>      -0.46153846      -0.23076923       0.38461538 </v>
   <v>      -0.38461538      -0.23076923       0.38461538 </v>
   <v>      -0.30769231      -0.23076923       0.38461538 </v>
   <v>      -0.23076923      -0.23076923       0.38461538 </v>
   <v>      -0.15384615      -0.23076923       0.38461538 </v>
   <v>      -0.07692308      -0.23076923       0.38461538 </v>
   <v>       0.00000000      -0.15384615       0.38461538 </v>
   <v>       0.07692308      -0.15384615       0.38461538 </v>
   <v>       0.15384615      -0.15384615       0.38461538 </v>
   <v>       0.23076923      -0.15384615       0.38461538 </v>
   <v>       0.30769231      -0.15384615       0.38461538 </v>
   <v>       0.38461538      -0.15384615       0.38461538 </v>
   <v>       0.46153846      -0.15384615       0.38461538 </v>
   <v>      -0.46153846      -0.15384615       0.38461538 </v>
   <v>      -0.38461538      -0.15384615       0.38461538 </v>
   <v>      -0.30769231      -0.15384615       0.38461538 </v>
   <v>      -0.23076923      -0.15384615       0.38461538 </v>
   <v>      -0.15384615      -0.15384615       0.38461538 </v>
   <v>      -0.07692308      -0.15384615       0.38461538 </v>
   <v>       0.00000000      -0.07692308       0.38461538 </v>
   <v>       0.07692308      -0.07692308       0.38461538 </v>
   <v>       0.15384615      -0.07692308       0.38461538 </v>
   <v>       0.23076923      -0.07692308       0.38461538 </v>
   <v>       0.30769231      -0.07692308       0.38461538 </v>
   <v>       0.38461538      -0.07692308       0.38461538 </v>
   <v>       0.46153846      -0.07692308       0.38461538 </v>
   <v>      -0.46153846      -0.07692308       0.38461538 </v>
   <v>      -0.38461538      -0.07692308       0.38461538 </v>
   <v>      -0.30769231      -0.07692308       0.38461538 </v>
   <v>      -0.23076923      -0.07692308       0.38461538 </v>
   <v>      -0.15384615      -0.07692308       0.38461538 </v>
   <v>      -0.07692308      -0.07692308       0.38461538 </v>
   <v>       0.00000000       0.00000000       0.46153846 </v>
   <v>       0.07692308      -0.00000000       0.46153846 </v>
   <v>       0.15384615      -0.00000000       0.46153846 </v>
   <v>       0.23076923      -0.00000000       0.46153846 </v>
   <v>       0.30769231       0.00000000       0.46153846 </v>
   <v>       0.38461538      -0.00000000       0.46153846 </v>
   <v>       0.46153846      -0.00000000       0.46153846 </v>
   <v>      -0.46153846      -0.00000000       0.46153846 </v>
   <v>      -0.38461538      -0.00000000       0.46153846 </v>
   <v>      -0.30769231      -0.00000000       0.46153846 </v>
   <v>      -0.23076923      -0.00000000       0.46153846 </v>
   <v>      -0.15384615       0.00000000       0.46153846 </v>
   <v>      -0.07692308       0.00000000       0.46153846 </v>
   <v>       0.00000000       0.07692308       0.46153846 </v>
   <v>       0.07692308       0.07692308       0.46153846 </v>
   <v>       0.15384615       0.07692308       0.46153846 </v>
   <v>       0.23076923       0.07692308       0.46153846 </v>
   <v>       0.30769231       0.07692308       0.46153846 </v>
   <v>       0.38461538       0.07692308       0.46153846 </v>
   <v>       0.46153846       0.07692308       0.46153846 </v>
   <v>      -0.46153846       0.07692308       0.46153846 </v>
   <v>      -0.38461538       0.07692308       0.46153846 </v>
   <v>      -0.30769231       0.07692308       0.46153846 </v>
   <v>      -0.23076923       0.07692308       0.46153846 </v>
   <v>      -0.15384615       0.07692308       0.46153846 </v>
   <v>      -0.07692308       0.07692308       0.46153846 </v>
   <v>       0.00000000       0.15384615       0.46153846 </v>
   <v>       0.07692308       0.15384615       0.46153846 </v>
   <v>       0.15384615       0.15384615       0.46153846 </v>
   <v>       0.23076923       0.15384615       0.46153846 </v>
   <v>       0.30769231       0.15384615       0.46153846 </v>
   <v>       0.38461538       0.15384615       0.46153846 </v>
   <v>       0.46153846       0.15384615       0.46153846 </v>
   <v>      -0.46153846       0.15384615       0.46153846 </v>
   <v>      -0.38461538       0.15384615       0.46153846 </v>
   <v>      -0.30769231       0.15384615       0.46153846 </v>
   <v>      -0.23076923       0.15384615       0.46153846 </v>
   <v>      -0.15384615       0.15384615       0.46153846 </v>
   <v>      -0.07692308       0.15384615       0.46153846 </v>
   <v>       0.00000000       0.23076923       0.46153846 </v>
   <v>       0.07692308       0.23076923       0.46153846 </v>
   <v>       0.15384615       0.23076923       0.46153846 </v>
   <v>       0.23076923       0.23076923       0.46153846 </v>
   <v>       0.30769231       0.23076923       0.46153846 </v>
   <v>       0.38461538       0.23076923       0.46153846 </v>
   <v>       0.46153846       0.23076923       0.46153846 </v>
   <v>      -0.46153846       0.23076923       0.46153846 </v>
   <v>      -0.38461538       0.23076923       0.46153846 </v>
   <v>      -0.30769231       0.23076923       0.46153846 </v>
   <v>      -0.23076923       0.23076923       0.46153846 </v>
   <v>      -0.15384615       0.23076923       0.46153846 </v>
   <v>      -0.07692308       0.23076923       0.46153846 </v>
   <v>       0.00000000       0.30769231       0.46153846 </v>
   <v>       0.07692308       0.30769231       0.46153846 </v>
   <v>       0.15384615       0.30769231       0.46153846 </v>
   <v>       0.23076923       0.30769231       0.46153846 </v>
   <v>       0.30769231       0.30769231       0.46153846 </v>
   <v>       0.38461538       0.30769231       0.46153846 </v>
   <v>       0.46153846       0.30769231       0.46153846 </v>
   <v>      -0.46153846       0.30769231       0.46153846 </v>
   <v>      -0.38461538       0.30769231       0.46153846 </v>
   <v>      -0.30769231       0.30769231       0.46153846 </v>
   <v>      -0.23076923       0.30769231       0.46153846 </v>
   <v>      -0.15384615       0.30769231       0.46153846 </v>
   <v>      -0.07692308       0.30769231       0.46153846 </v>
   <v>       0.00000000       0.38461538       0.46153846 </v>
   <v>       0.07692308       0.38461538       0.46153846 </v>
   <v>       0.15384615       0.38461538       0.46153846 </v>
   <v>       0.23076923       0.38461538       0.46153846 </v>
   <v>       0.30769231       0.38461538       0.46153846 </v>
   <v>       0.38461538       0.38461538       0.46153846 </v>
   <v>       0.46153846       0.38461538       0.46153846 </v>
   <v>      -0.46153846       0.38461538       0.46153846 </v>
   <v>      -0.38461538       0.38461538       0.46153846 </v>
   <v>      -0.30769231       0.38461538       0.46153846 </v>
   <v>      -0.23076923       0.38461538       0.46153846 </v>
   <v>      -0.15384615       0.38461538       0.46153846 </v>
   <v>      -0.07692308       0.38461538       0.46153846 </v>
   <v>      -0.00000000       0.46153846       0.46153846 </v>
   <v>       0.07692308       0.46153846       0.46153846 </v>
   <v>       0.15384615       0.46153846       0.46153846 </v>
   <v>       0.23076923       0.46153846       0.46153846 </v>
   <v>       0.30769231       0.46153846       0.46153846 </v>
   <v>       0.38461538       0.46153846       0.46153846 </v>
   <v>       0.46153846       0.46153846       0.46153846 </v>
   <v>      -0.46153846       0.46153846       0.46153846 </v>
   <v>      -0.38461538       0.46153846       0.46153846 </v>
   <v>      -0.30769231       0.46153846       0.46153846 </v>
   <v>      -0.23076923       0.46153846       0.46153846 </v>
   <v>      -0.15384615       0.46153846       0.46153846 </v>
   <v>      -0.07692308       0.46153846       0.46153846 </v>
   <v>       0.00000000      -0.46153846       0.46153846 </v>
   <v>       0.07692308      -0.46153846       0.46153846 </v>
   <v>       0.15384615      -0.46153846       0.46153846 </v>
   <v>       0.23076923      -0.46153846       0.46153846 </v>
   <v>       0.30769231      -0.46153846       0.46153846 </v>
   <v>       0.38461538      -0.46153846       0.46153846 </v>
   <v>       0.46153846      -0.46153846       0.46153846 </v>
   <v>      -0.46153846      -0.46153846       0.46153846 </v>
   <v>      -0.38461538      -0.46153846       0.46153846 </v>
   <v>      -0.30769231      -0.46153846       0.46153846 </v>
   <v>      -0.23076923      -0.46153846       0.46153846 </v>
   <v>      -0.15384615      -0.46153846       0.46153846 </v>
   <v>      -0.07692308      -0.46153846       0.46153846 </v>
   <v>       0.00000000      -0.38461538       0.46153846 </v>
   <v>       0.07692308      -0.38461538       0.46153846 </v>
   <v>       0.15384615      -0.38461538       0.46153846 </v>
   <v>       0.23076923      -0.38461538       0.46153846 </v>
   <v>       0.30769231      -0.38461538       0.46153846 </v>
   <v>       0.38461538      -0.38461538       0.46153846 </v>
   <v>       0.46153846      -0.38461538       0.46153846 </v>
   <v>      -0.46153846      -0.38461538       0.46153846 </v>
   <v>      -0.38461538      -0.38461538       0.46153846 </v>
   <v>      -0.30769231      -0.38461538       0.46153846 </v>
   <v>      -0.23076923      -0.38461538       0.46153846 </v>
   <v>      -0.15384615      -0.38461538       0.46153846 </v>
   <v>      -0.07692308      -0.38461538       0.46153846 </v>
   <v>       0.00000000      -0.30769231       0.46153846 </v>
   <v>       0.07692308      -0.30769231       0.46153846 </v>
   <v>       0.15384615      -0.30769231       0.46153846 </v>
   <v>       0.23076923      -0.30769231       0.46153846 </v>
   <v>       0.30769231      -0.30769231       0.46153846 </v>
   <v>       0.38461538      -0.30769231       0.46153846 </v>
   <v>       0.46153846      -0.30769231       0.46153846 </v>
   <v>      -0.46153846      -0.30769231       0.46153846 </v>
   <v>      -0.38461538      -0.30769231       0.46153846 </v>
   <v>      -0.30769231      -0.30769231       0.46153846 </v>
   <v>      -0.23076923      -0.30769231       0.46153846 </v>
   <v>      -0.15384615      -0.30769231       0.46153846 </v>
   <v>      -0.07692308      -0.30769231       0.46153846 </v>
   <v>       0.00000000      -0.23076923       0.46153846 </v>
   <v>       0.07692308      -0.23076923       0.46153846 </v>
   <v>       0.15384615      -0.23076923       0.46153846 </v>
   <v>       0.23076923      -0.23076923       0.46153846 </v>
   <v>       0.30769231      -0.23076923       0.46153846 </v>
   <v>       0.38461538      -0.23076923       0.46153846 </v>
   <v>       0.46153846      -0.23076923       0.46153846 </v>
   <v>      -0.46153846      -0.23076923       0.46153846 </v>
   <v>      -0.38461538      -0.23076923       0.46153846 </v>
   <v>      -0.30769231      -0.23076923       0.46153846 </v>
   <v>      -0.23076923      -0.23076923       0.46153846 </v>
   <v>      -0.15384615      -0.23076923       0.46153846 </v>
   <v>      -0.07692308      -0.23076923       0.46153846 </v>
   <v>       0.00000000      -0.15384615       0.46153846 </v>
   <v>       0.07692308      -0.15384615       0.46153846 </v>
   <v>       0.15384615      -0.15384615       0.46153846 </v>
   <v>       0.23076923      -0.15384615       0.46153846 </v>
   <v>       0.30769231      -0.15384615       0.46153846 </v>
   <v>       0.38461538      -0.15384615       0.46153846 </v>
   <v>       0.46153846      -0.15384615       0.46153846 </v>
   <v>      -0.46153846      -0.15384615       0.46153846 </v>
   <v>      -0.38461538      -0.15384615       0.46153846 </v>
   <v>      -0.30769231      -0.15384615       0.46153846 </v>
   <v>      -0.23076923      -0.15384615       0.46153846 </v>
   <v>      -0.15384615      -0.15384615       0.46153846 </v>
   <v>      -0.07692308      -0.15384615       0.46153846 </v>
   <v>       0.00000000      -0.07692308       0.46153846 </v>
   <v>       0.07692308      -0.07692308       0.46153846 </v>
   <v>       0.15384615      -0.07692308       0.46153846 </v>
   <v>       0.23076923      -0.07692308       0.46153846 </v>
   <v>       0.30769231      -0.07692308       0.46153846 </v>
   <v>       0.38461538      -0.07692308       0.46153846 </v>
   <v>       0.46153846      -0.07692308       0.46153846 </v>
   <v>      -0.46153846      -0.07692308       0.46153846 </v>
   <v>      -0.38461538      -0.07692308       0.46153846 </v>
   <v>      -0.30769231      -0.07692308       0.46153846 </v>
   <v>      -0.23076923      -0.07692308       0.46153846 </v>
   <v>      -0.15384615      -0.07692308       0.46153846 </v>
   <v>      -0.07692308      -0.07692308       0.46153846 </v>
  </varray>
  <varray name="weights" >
   <v>       0.00045517 </v>
   <v>       0.00091033 </v>
   <v>       0.00091033 </v>
   <v>       0.00091033 </v>
   <v>       0.00091033 </v>
   <v>       0.00091033 </v>
   <v>       0.00091033 </v>
   <v>       0.00091033 </v>
   <v>       0.00091033 </v>
   <v>       0.00091033 </v>
   <v>       0.00091033 </v>
   <v>       0.00091033 </v>
   <v>       0.00091033 </v>
   <v>       0.00091033 </v>
   <v>       0.00091033 </v>
   <v>       0.00091033 </v>
   <v>       0.00091033 </v>
   <v>       0.00091033 </v>
   <v>       0.00091033 </v>
   <v>       0.00091033 </v>
   <v>       0.00091033 </v>
   <v>       0.00091033 </v>
   <v>       0.00091033 </v>
   <v>       0.00091033 </v>
   <v>       0.00091033 </v>
   <v>       0.00091033 </v>
   <v>       0.00091033 </v>
   <v>       0.00091033 </v>
   <v>       0.00091033 </v>
   <v>       0.00091033 </v>
   <v>       0.00091033 </v>
   <v>       0.00091033 </v>
   <v>       0.00091033 </v>
   <v>       0.00091033 </v>
   <v>       0.00091033 </v>
   <v>       0.00091033 </v>
   <v>       0.00091033 </v>
   <v>       0.00091033 </v>
   <v>       0.00091033 </v>
   <v>       0.00091033 </v>
   <v>       0.00091033 </v>
   <v>       0.00091033 </v>
   <v>       0.00091033 </v>
   <v>       0.00091033 </v>
   <v>       0.00091033 </v>
   <v>       0.00091033 </v>
   <v>       0.00091033 </v>
   <v>       0.00091033 </v>
   <v>       0.00091033 </v>
   <v>       0.00091033 </v>
   <v>       0.00091033 </v>
   <v>       0.00091033 </v>
   <v>       0.00091033 </v>
   <v>       0.00091033 </v>
   <v>       0.00091033 </v>
   <v>       0.00091033 </v>
   <v>       0.00091033 </v>
   <v>       0.00091033 </v>
   <v>       0.00091033 </v>
   <v>       0.00091033 </v>
   <v>       0.00091033 </v>
   <v>       0.00091033 </v>
   <v>       0.00091033 </v>
   <v>       0.00091033 </v>
   <v>       0.00091033 </v>
   <v>       0.00091033 </v>
   <v>       0.00091033 </v>
   <v>       0.00091033 </v>
   <v>       0.00091033 </v>
   <v>       0.00091033 </v>
   <v>       0.00091033 </v>
   <v>       0.00091033 </v>
   <v>       0.00091033 </v>
   <v>       0.00091033 </v>
   <v>       0.00091033 </v>
   <v>       0.00091033 </v>
   <v>       0.00091033 </v>
   <v>       0.00091033 </v>
   <v>       0.00091033 </v>
   <v>       0.00091033 </v>
   <v>       0.00091033 </v>
   <v>       0.00091033 </v>
   <v>       0.00091033 </v>
   <v>       0.00091033 </v>
   <v>       0.00091033 </v>
   <v>       0.00091033 </v>
   <v>       0.00091033 </v>
   <v>       0.00091033 </v>
   <v>       0.00091033 </v>
   <v>       0.00091033 </v>
   <v>       0.00091033 </v>
   <v>       0.00091033 </v>
   <v>       0.00091033 </v>
   <v>       0.00091033 </v>
   <v>       0.00091033 </v>
   <v>       0.00091033 </v>
   <v>       0.00091033 </v>
   <v>       0.00091033 </v>
   <v>       0.00091033 </v>
   <v>       0.00091033 </v>
   <v>       0.00091033 </v>
   <v>       0.00091033 </v>
   <v>       0.00091033 </v>
   <v>       0.00091033 </v>
   <v>       0.00091033 </v>
   <v>       0.00091033 </v>
   <v>       0.00091033 </v>
   <v>       0.00091033 </v>
   <v>       0.00091033 </v>
   <v>       0.00091033 </v>
   <v>       0.00091033 </v>
   <v>       0.00091033 </v>
   <v>       0.00091033 </v>
   <v>       0.00091033 </v>
   <v>       0.00091033 </v>
   <v>       0.00091033 </v>
   <v>       0.00091033 </v>
   <v>       0.00091033 </v>
   <v>       0.00091033 </v>
   <v>       0.00091033 </v>
   <v>       0.00091033 </v>
   <v>       0.00091033 </v>
   <v>       0.00091033 </v>
   <v>       0.00091033 </v>
   <v>       0.00091033 </v>
   <v>       0.00091033 </v>
   <v>       0.00091033 </v>
   <v>       0.00091033 </v>
   <v>       0.00091033 </v>
   <v>       0.00091033 </v>
   <v>       0.00091033 </v>
   <v>       0.00091033 </v>
   <v>       0.00091033 </v>
   <v>       0.00091033 </v>
   <v>       0.00091033 </v>
   <v>       0.00091033 </v>
   <v>       0.00091033 </v>
   <v>       0.00091033 </v>
   <v>       0.00091033 </v>
   <v>       0.00091033 </v>
   <v>       0.00091033 </v>
   <v>       0.00091033 </v>
   <v>       0.00091033 </v>
   <v>       0.00091033 </v>
   <v>       0.00091033 </v>
   <v>       0.00091033 </v>
   <v>       0.00091033 </v>
   <v>       0.00091033 </v>
   <v>       0.00091033 </v>
   <v>       0.00091033 </v>
   <v>       0.00091033 </v>
   <v>       0.00091033 </v>
   <v>       0.00091033 </v>
   <v>       0.00091033 </v>
   <v>       0.00091033 </v>
   <v>       0.00091033 </v>
   <v>       0.00091033 </v>
   <v>       0.00091033 </v>
   <v>       0.00091033 </v>
   <v>       0.00091033 </v>
   <v>       0.00091033 </v>
   <v>       0.00091033 </v>
   <v>       0.00091033 </v>
   <v>       0.00091033 </v>
   <v>       0.00091033 </v>
   <v>       0.00091033 </v>
   <v>       0.00091033 </v>
   <v>       0.00091033 </v>
   <v>       0.00091033 </v>
   <v>       0.00091033 </v>
   <v>       0.00091033 </v>
   <v>       0.00091033 </v>
   <v>       0.00091033 </v>
   <v>       0.00091033 </v>
   <v>       0.00091033 </v>
   <v>       0.00091033 </v>
   <v>       0.00091033 </v>
   <v>       0.00091033 </v>
   <v>       0.00091033 </v>
   <v>       0.00091033 </v>
   <v>       0.00091033 </v>
   <v>       0.00091033 </v>
   <v>       0.00091033 </v>
   <v>       0.00091033 </v>
   <v>       0.00091033 </v>
   <v>       0.00091033 </v>
   <v>       0.00091033 </v>
   <v>       0.00091033 </v>
   <v>       0.00091033 </v>
   <v>       0.00091033 </v>
   <v>       0.00091033 </v>
   <v>       0.00091033 </v>
   <v>       0.00091033 </v>
   <v>       0.00091033 </v>
   <v>       0.00091033 </v>
   <v>       0.00091033 </v>
   <v>       0.00091033 </v>
   <v>       0.00091033 </v>
   <v>       0.00091033 </v>
   <v>       0.00091033 </v>
   <v>       0.00091033 </v>
   <v>       0.00091033 </v>
   <v>       0.00091033 </v>
   <v>       0.00091033 </v>
   <v>       0.00091033 </v>
   <v>       0.00091033 </v>
   <v>       0.00091033 </v>
   <v>       0.00091033 </v>
   <v>       0.00091033 </v>
   <v>       0.00091033 </v>
   <v>       0.00091033 </v>
   <v>       0.00091033 </v>
   <v>       0.00091033 </v>
   <v>       0.00091033 </v>
   <v>       0.00091033 </v>
   <v>       0.00091033 </v>
   <v>       0.00091033 </v>
   <v>       0.00091033 </v>
   <v>       0.00091033 </v>
   <v>       0.00091033 </v>
   <v>       0.00091033 </v>
   <v>       0.00091033 </v>
   <v>       0.00091033 </v>
   <v>       0.00091033 </v>
   <v>       0.00091033 </v>
   <v>       0.00091033 </v>
   <v>       0.00091033 </v>
   <v>       0.00091033 </v>
   <v>       0.00091033 </v>
   <v>       0.00091033 </v>
   <v>       0.00091033 </v>
   <v>       0.00091033 </v>
   <v>       0.00091033 </v>
   <v>       0.00091033 </v>
   <v>       0.00091033 </v>
   <v>       0.00091033 </v>
   <v>       0.00091033 </v>
   <v>       0.00091033 </v>
   <v>       0.00091033 </v>
   <v>       0.00091033 </v>
   <v>       0.00091033 </v>
   <v>       0.00091033 </v>
   <v>       0.00091033 </v>
   <v>       0.00091033 </v>
   <v>       0.00091033 </v>
   <v>       0.00091033 </v>
   <v>       0.00091033 </v>
   <v>       0.00091033 </v>
   <v>       0.00091033 </v>
   <v>       0.00091033 </v>
   <v>       0.00091033 </v>
   <v>       0.00091033 </v>
   <v>       0.00091033 </v>
   <v>       0.00091033 </v>
   <v>       0.00091033 </v>
   <v>       0.00091033 </v>
   <v>       0.00091033 </v>
   <v>       0.00091033 </v>
   <v>       0.00091033 </v>
   <v>       0.00091033 </v>
   <v>       0.00091033 </v>
   <v>       0.00091033 </v>
   <v>       0.00091033 </v>
   <v>       0.00091033 </v>
   <v>       0.00091033 </v>
[...]
       <r>   31.5280    0.0000 </r>
       <r>   33.7172    0.0000 </r>
      </set>
      <set comment="kpoint 1092">
       <r>  -42.0542    1.0000 </r>
       <r>  -20.4139    1.0000 </r>
       <r>   -3.9227    1.0000 </r>
       <r>   -2.2292    1.0000 </r>
       <r>   -2.0598    1.0000 </r>
       <r>   13.3017    0.0000 </r>
       <r>   14.8565    0.0000 </r>
       <r>   16.1577    0.0000 </r>
       <r>   18.6001    0.0000 </r>
       <r>   19.8199    0.0000 </r>
       <r>   31.8071    0.0000 </r>
       <r>   35.0328    0.0000 </r>
      </set>
      <set comment="kpoint 1093">
       <r>  -42.0534    1.0000 </r>
       <r>  -20.3999    1.0000 </r>
       <r>   -4.0127    1.0000 </r>
       <r>   -2.1842    1.0000 </r>
       <r>   -2.0887    1.0000 </r>
       <r>   13.4619    0.0000 </r>
       <r>   14.9438    0.0000 </r>
       <r>   16.0965    0.0000 </r>
       <r>   18.7626    0.0000 </r>
       <r>   19.2740    0.0000 </r>
       <r>   31.7130    0.0000 </r>
       <r>   36.5401    0.0000 </r>
      </set>
      <set comment="kpoint 1094">
       <r>  -42.0542    1.0000 </r>
       <r>  -20.4139    1.0000 </r>
       <r>   -3.9227    1.0000 </r>
       <r>   -2.2292    1.0000 </r>
       <r>   -2.0598    1.0000 </r>
       <r>   13.3017    0.0000 </r>
       <r>   14.8565    0.0000 </r>
       <r>   16.1577    0.0000 </r>
       <r>   18.6001    0.0000 </r>
       <r>   19.8199    0.0000 </r>
       <r>   31.8071    0.0000 </r>
       <r>   35.0327    0.0000 </r>
      </set>
      <set comment="kpoint 1095">
       <r>  -42.0563    1.0000 </r>
       <r>  -20.4519    1.0000 </r>
       <r>   -3.6875    1.0000 </r>
       <r>   -2.3494    1.0000 </r>
       <r>   -1.9525    1.0000 </r>
       <r>   12.8194    0.0000 </r>
       <r>   14.5325    0.0000 </r>
       <r>   16.5995    0.0000 </r>
       <r>   18.4022    0.0000 </r>
       <r>   20.9872    0.0000 </r>
       <r>   31.5280    0.0000 </r>
       <r>   33.7172    0.0000 </r>
      </set>
      <set comment="kpoint 1096">
       <r>  -42.0592    1.0000 </r>
       <r>  -20.5046    1.0000 </r>
       <r>   -3.4454    1.0000 </r>
       <r>   -2.3958    1.0000 </r>
       <r>   -1.7901    1.0000 </r>
       <r>   11.9851    0.0000 </r>
       <r>   14.4076    0.0000 </r>
       <r>   17.1746    0.0000 </r>
       <r>   18.1827    0.0000 </r>
       <r>   22.6120    0.0000 </r>
       <r>   30.2273    0.0000 </r>
       <r>   33.6038    0.0000 </r>
      </set>
      <set comment="kpoint 1097">
       <r>  -42.0623    1.0000 </r>
       <r>  -20.5600    1.0000 </r>
       <r>   -3.4037    1.0000 </r>
       <r>   -2.1737    1.0000 </r>
       <r>   -1.6118    1.0000 </r>
       <r>   11.0270    0.0000 </r>
       <r>   14.5738    0.0000 </r>
       <r>   17.5669    0.0000 </r>
       <r>   17.9479    0.0000 </r>
       <r>   24.6534    0.0000 </r>
       <r>   29.0482    0.0000 </r>
       <r>   32.1546    0.0000 </r>
      </set>
      <set comment="kpoint 1098">
       <r>  -42.0648    1.0000 </r>
       <r>  -20.6053    1.0000 </r>
       <r>   -3.4967    1.0000 </r>
       <r>   -1.8065    1.0000 </r>
       <r>   -1.4645    1.0000 </r>
       <r>   10.2200    0.0000 </r>
       <r>   14.8882    0.0000 </r>
       <r>   17.6812    0.0000 </r>
       <r>   17.7430    0.0000 </r>
       <r>   26.9371    0.0000 </r>
       <r>   28.4558    0.0000 </r>
       <r>   30.4945    0.0000 </r>
      </set>
      <set comment="kpoint 1099">
       <r>  -42.0663    1.0000 </r>
       <r>  -20.6305    1.0000 </r>
       <r>   -3.5708    1.0000 </r>
       <r>   -1.5355    1.0000 </r>
       <r>   -1.3978    1.0000 </r>
       <r>    9.7589    0.0000 </r>
       <r>   15.1564    0.0000 </r>
       <r>   17.6225    0.0000 </r>
       <r>   17.6263    0.0000 </r>
       <r>   28.3908    0.0000 </r>
       <r>   28.8730    0.0000 </r>
       <r>   29.5035    0.0000 </r>
      </set>
     </set>
    </set>
   </array>
  </eigenvalues>
  <separator name="orbital magnetization" >
   <v name="MAGDIPOLOUT">      0.00000000      0.00000000      0.00000000</v>
  </separator>
  <dos>
   <i name="efermi">     -0.90999935 </i>
   <total>
    <array>
     <dimension dim="1">gridpoints</dimension>
     <dimension dim="2">spin</dimension>
     <field>energy</field>
     <field>total</field>
     <field>integrated</field>
     <set>
      <set comment="spin 1">
       <r>   -46.1457     0.0000     0.0000 </r>
       <r>   -45.8505     0.0000     0.0000 </r>
       <r>   -45.5553     0.0000     0.0000 </r>
       <r>   -45.2601     0.0000     0.0000 </r>
       <r>   -44.9650     0.0000     0.0000 </r>
       <r>   -44.6698     0.0000     0.0000 </r>
       <r>   -44.3746     0.0000     0.0000 </r>
       <r>   -44.0794     0.0000     0.0000 </r>
       <r>   -43.7843     0.0000     0.0000 </r>
       <r>   -43.4891     0.0000     0.0000 </r>
       <r>   -43.1939     0.0000     0.0000 </r>
       <r>   -42.8987     0.0000     0.0000 </r>
       <r>   -42.6035     0.0000     0.0000 </r>
       <r>   -42.3084     0.0000     0.0000 </r>
       <r>   -42.0132     6.2174     2.0000 </r>
       <r>   -41.7180     0.0000     2.0000 </r>
       <r>   -41.4228     0.0000     2.0000 </r>
       <r>   -41.1277     0.0000     2.0000 </r>
       <r>   -40.8325     0.0000     2.0000 </r>
       <r>   -40.5373     0.0000     2.0000 </r>
       <r>   -40.2421     0.0000     2.0000 </r>
       <r>   -39.9470     0.0000     2.0000 </r>
       <r>   -39.6518     0.0000     2.0000 </r>
       <r>   -39.3566     0.0000     2.0000 </r>
       <r>   -39.0614     0.0000     2.0000 </r>
       <r>   -38.7663     0.0000     2.0000 </r>
       <r>   -38.4711     0.0000     2.0000 </r>
       <r>   -38.1759     0.0000     2.0000 </r>
       <r>   -37.8807     0.0000     2.0000 </r>
       <r>   -37.5856     0.0000     2.0000 </r>
       <r>   -37.2904     0.0000     2.0000 </r>
       <r>   -36.9952     0.0000     2.0000 </r>
       <r>   -36.7000     0.0000     2.0000 </r>
       <r>   -36.4049     0.0000     2.0000 </r>
       <r>   -36.1097     0.0000     2.0000 </r>
       <r>   -35.8145     0.0000     2.0000 </r>
       <r>   -35.5193     0.0000     2.0000 </r>
       <r>   -35.2242     0.0000     2.0000 </r>
       <r>   -34.9290     0.0000     2.0000 </r>
       <r>   -34.6338     0.0000     2.0000 </r>
       <r>   -34.3386     0.0000     2.0000 </r>
       <r>   -34.0435     0.0000     2.0000 </r>
       <r>   -33.7483     0.0000     2.0000 </r>
       <r>   -33.4531     0.0000     2.0000 </r>
       <r>   -33.1579     0.0000     2.0000 </r>
       <r>   -32.8628     0.0000     2.0000 </r>
       <r>   -32.5676     0.0000     2.0000 </r>
       <r>   -32.2724     0.0000     2.0000 </r>
       <r>   -31.9772     0.0000     2.0000 </r>
       <r>   -31.6821     0.0000     2.0000 </r>
       <r>   -31.3869     0.0000     2.0000 </r>
       <r>   -31.0917     0.0000     2.0000 </r>
       <r>   -30.7965     0.0000     2.0000 </r>
       <r>   -30.5013     0.0000     2.0000 </r>
       <r>   -30.2062     0.0000     2.0000 </r>
       <r>   -29.9110     0.0000     2.0000 </r>
       <r>   -29.6158     0.0000     2.0000 </r>
       <r>   -29.3206     0.0000     2.0000 </r>
       <r>   -29.0255     0.0000     2.0000 </r>
       <r>   -28.7303     0.0000     2.0000 </r>
       <r>   -28.4351     0.0000     2.0000 </r>
       <r>   -28.1399     0.0000     2.0000 </r>
       <r>   -27.8448     0.0000     2.0000 </r>
       <r>   -27.5496     0.0000     2.0000 </r>
       <r>   -27.2544     0.0000     2.0000 </r>
       <r>   -26.9592     0.0000     2.0000 </r>
       <r>   -26.6641     0.0000     2.0000 </r>
       <r>   -26.3689     0.0000     2.0000 </r>
       <r>   -26.0737     0.0000     2.0000 </r>
       <r>   -25.7785     0.0000     2.0000 </r>
       <r>   -25.4834     0.0000     2.0000 </r>
       <r>   -25.1882     0.0000     2.0000 </r>
       <r>   -24.8930     0.0000     2.0000 </r>
       <r>   -24.5978     0.0000     2.0000 </r>
       <r>   -24.3027     0.0000     2.0000 </r>
       <r>   -24.0075     0.0000     2.0000 </r>
       <r>   -23.7123     0.0000     2.0000 </r>
       <r>   -23.4171     0.0000     2.0000 </r>
       <r>   -23.1220     0.0000     2.0000 </r>
       <r>   -22.8268     0.0000     2.0000 </r>
       <r>   -22.5316     0.0000     2.0000 </r>
       <r>   -22.2364     0.0000     2.0000 </r>
       <r>   -21.9413     0.0000     2.0000 </r>
       <r>   -21.6461     0.0000     2.0000 </r>
       <r>   -21.3509     0.0000     2.0000 </r>
       <r>   -21.0557     0.0033     2.0010 </r>
       <r>   -20.7606     0.5118     2.3158 </r>
       <r>   -20.4654     1.3741     3.6191 </r>
       <r>   -20.1702     0.0000     4.0000 </r>
       <r>   -19.8750     0.0000     4.0000 </r>
       <r>   -19.5799     0.0000     4.0000 </r>
       <r>   -19.2847     0.0000     4.0000 </r>
       <r>   -18.9895     0.0000     4.0000 </r>
       <r>   -18.6943     0.0000     4.0000 </r>
       <r>   -18.3992     0.0000     4.0000 </r>
       <r>   -18.1040     0.0000     4.0000 </r>
       <r>   -17.8088     0.0000     4.0000 </r>
       <r>   -17.5136     0.0000     4.0000 </r>
       <r>   -17.2184     0.0000     4.0000 </r>
       <r>   -16.9233     0.0000     4.0000 </r>
       <r>   -16.6281     0.0000     4.0000 </r>
       <r>   -16.3329     0.0000     4.0000 </r>
       <r>   -16.0377     0.0000     4.0000 </r>
       <r>   -15.7426     0.0000     4.0000 </r>
       <r>   -15.4474     0.0000     4.0000 </r>
       <r>   -15.1522     0.0000     4.0000 </r>
       <r>   -14.8570     0.0000     4.0000 </r>
       <r>   -14.5619     0.0000     4.0000 </r>
       <r>   -14.2667     0.0000     4.0000 </r>
       <r>   -13.9715     0.0000     4.0000 </r>
       <r>   -13.6763     0.0000     4.0000 </r>
       <r>   -13.3812     0.0000     4.0000 </r>
       <r>   -13.0860     0.0000     4.0000 </r>
       <r>   -12.7908     0.0000     4.0000 </r>
       <r>   -12.4956     0.0000     4.0000 </r>
       <r>   -12.2005     0.0000     4.0000 </r>
       <r>   -11.9053     0.0000     4.0000 </r>
       <r>   -11.6101     0.0000     4.0000 </r>
       <r>   -11.3149     0.0000     4.0000 </r>
       <r>   -11.0198     0.0000     4.0000 </r>
       <r>   -10.7246     0.0000     4.0000 </r>
       <r>   -10.4294     0.0000     4.0000 </r>
       <r>   -10.1342     0.0000     4.0000 </r>
       <r>    -9.8391     0.0000     4.0000 </r>
       <r>    -9.5439     0.0000     4.0000 </r>
       <r>    -9.2487     0.0000     4.0000 </r>
       <r>    -8.9535     0.0000     4.0000 </r>
       <r>    -8.6584     0.0000     4.0000 </r>
       <r>    -8.3632     0.0000     4.0000 </r>
       <r>    -8.0680     0.0000     4.0000 </r>
       <r>    -7.7728     0.0000     4.0000 </r>
       <r>    -7.4777     0.0000     4.0000 </r>
       <r>    -7.1825     0.0000     4.0000 </r>
       <r>    -6.8873     0.0000     4.0000 </r>
       <r>    -6.5921     0.0000     4.0000 </r>
       <r>    -6.2970     0.0000     4.0000 </r>
       <r>    -6.0018     0.0000     4.0000 </r>
       <r>    -5.7066     0.0000     4.0000 </r>
       <r>    -5.4114     0.0000     4.0000 </r>
       <r>    -5.1163     0.0000     4.0000 </r>
       <r>    -4.8211     0.0000     4.0000 </r>
       <r>    -4.5259     0.0000     4.0000 </r>
       <r>    -4.2307     0.0000     4.0000 </r>
       <r>    -3.9355     0.0395     4.0171 </r>
       <r>    -3.6404     0.2541     4.1788 </r>
       <r>    -3.3452     1.0517     4.8311 </r>
       <r>    -3.0500     0.5328     5.4499 </r>
       <r>    -2.7548     0.2863     5.8378 </r>
       <r>    -2.4597     0.4350     6.3296 </r>
       <r>    -2.1645     0.4955     6.8190 </r>
       <r>    -1.8693     0.9361     7.6045 </r>
       <r>    -1.5741     0.9935     8.7047 </r>
       <r>    -1.2790     0.8323     9.7313 </r>
       <r>    -0.9838     0.0000    10.0000 </r>
       <r>    -0.6886     0.0000    10.0000 </r>
       <r>    -0.3934     0.0000    10.0000 </r>
       <r>    -0.0983     0.0000    10.0000 </r>
       <r>     0.1969     0.0000    10.0000 </r>
       <r>     0.4921     0.0000    10.0000 </r>
       <r>     0.7873     0.0000    10.0000 </r>
       <r>     1.0824     0.0000    10.0000 </r>
       <r>     1.3776     0.0000    10.0000 </r>
       <r>     1.6728     0.0000    10.0000 </r>
       <r>     1.9680     0.0000    10.0000 </r>
       <r>     2.2631     0.0000    10.0000 </r>
       <r>     2.5583     0.0000    10.0000 </r>
       <r>     2.8535     0.0000    10.0000 </r>
       <r>     3.1487     0.0000    10.0000 </r>
       <r>     3.4438     0.0000    10.0000 </r>
       <r>     3.7390     0.0000    10.0000 </r>
       <r>     4.0342     0.0000    10.0000 </r>
       <r>     4.3294     0.0000    10.0000 </r>
       <r>     4.6245     0.0000    10.0000 </r>
       <r>     4.9197     0.0000    10.0000 </r>
       <r>     5.2149     0.0000    10.0000 </r>
       <r>     5.5101     0.0000    10.0000 </r>
       <r>     5.8052     0.0000    10.0000 </r>
       <r>     6.1004     0.0000    10.0000 </r>
       <r>     6.3956     0.0000    10.0000 </r>
       <r>     6.6908     0.0000    10.0000 </r>
       <r>     6.9859     0.0000    10.0000 </r>
       <r>     7.2811     0.0000    10.0000 </r>
       <r>     7.5763     0.0000    10.0000 </r>
       <r>     7.8715     0.0000    10.0009 </r>
       <r>     8.1666     0.0000    10.0137 </r>
       <r>     8.4618     0.0000    10.0537 </r>
       <r>     8.7570     0.0925    10.0810 </r>
       <r>     9.0522     0.0000    10.1320 </r>
       <r>     9.3474     0.0247    10.1939 </r>
       <r>     9.6425     0.0740    10.2959 </r>
       <r>     9.9377     0.1480    10.4980 </r>
       <r>    10.2329     0.2856    10.6478 </r>
       <r>    10.5281     0.0025    10.7936 </r>
       <r>    10.8232     0.0211    10.8428 </r>
       <r>    11.1184     0.0740    11.1042 </r>
       <r>    11.4136     0.0184    11.1752 </r>
       <r>    11.7088     0.0740    11.3009 </r>
       <r>    12.0039     0.1475    11.4427 </r>
       <r>    12.2991     0.0800    11.5320 </r>
       <r>    12.5943     0.0000    11.6231 </r>
       <r>    12.8895     0.3677    11.7972 </r>
       <r>    13.1846     0.0000    11.8416 </r>
       <r>    13.4798     0.1136    11.9571 </r>
       <r>    13.7750     0.0740    12.0546 </r>
       <r>    14.0702     0.1812    12.3157 </r>
       <r>    14.3653     0.1922    12.5592 </r>
       <r>    14.6605     0.0000    12.8521 </r>
       <r>    14.9557     0.5532    13.1792 </r>
       <r>    15.2509     0.2221    13.3764 </r>
       <r>    15.5460     0.2773    13.5220 </r>
       <r>    15.8412     0.0740    13.6641 </r>
       <r>    16.1364     0.1160    13.7056 </r>
       <r>    16.4316     0.0001    13.8626 </r>
       <r>    16.7267     0.0131    14.0357 </r>
       <r>    17.0219     0.0740    14.2740 </r>
       <r>    17.3171     0.2856    14.4894 </r>
       <r>    17.6123     0.3921    14.7830 </r>
       <r>    17.9074     0.6327    15.7207 </r>
       <r>    18.2026     0.5503    16.5302 </r>
       <r>    18.4978     0.3200    16.9756 </r>
       <r>    18.7930     0.2247    17.3681 </r>
       <r>    19.0881     0.1384    17.5720 </r>
       <r>    19.3833     0.1110    17.7278 </r>
       <r>    19.6785     0.1480    17.9008 </r>
       <r>    19.9737     0.1480    17.9663 </r>
       <r>    20.2688     0.0085    18.0289 </r>
       <r>    20.5640     0.0494    18.1174 </r>
       <r>    20.8592     0.0000    18.1903 </r>
       <r>    21.1544     0.1110    18.3104 </r>
       <r>    21.4495     0.0000    18.3650 </r>
       <r>    21.7447     0.0555    18.4015 </r>
       <r>    22.0399     0.0000    18.4888 </r>
       <r>    22.3351     0.2189    18.6190 </r>
       <r>    22.6303     0.1473    18.6880 </r>
       <r>    22.9254     0.0000    18.7101 </r>
       <r>    23.2206     0.0000    18.7783 </r>
       <r>    23.5158     0.0011    18.8770 </r>
       <r>    23.8110     0.0429    18.9913 </r>
       <r>    24.1061     0.2961    19.1279 </r>
       <r>    24.4013     0.0740    19.2153 </r>
       <r>    24.6965     0.2736    19.3252 </r>
       <r>    24.9917     0.0000    19.3901 </r>
       <r>    25.2868     0.0003    19.4775 </r>
       <r>    25.5820     0.2711    19.6959 </r>
       <r>    25.8772     0.0000    19.7943 </r>
       <r>    26.1724     0.2221    19.9690 </r>
       <r>    26.4675     0.1126    20.0096 </r>
       <r>    26.7627     0.0718    20.0631 </r>
       <r>    27.0579     0.2150    20.2910 </r>
       <r>    27.3531     0.2310    20.4742 </r>
       <r>    27.6482     0.1006    20.6068 </r>
       <r>    27.9434     0.0000    20.7301 </r>
       <r>    28.2386     0.0740    20.7956 </r>
       <r>    28.5338     0.4206    21.1091 </r>
       <r>    28.8289     0.0695    21.3405 </r>
       <r>    29.1241     0.3749    21.5617 </r>
       <r>    29.4193     0.2714    21.7278 </r>
       <r>    29.7145     0.1237    21.9391 </r>
       <r>    30.0096     0.0740    22.0774 </r>
       <r>    30.3048     0.2221    22.2303 </r>
       <r>    30.6000     0.1480    22.3396 </r>
       <r>    30.8952     0.0000    22.5253 </r>
       <r>    31.1903     0.0000    22.5908 </r>
       <r>    31.4855     0.0353    22.6449 </r>
       <r>    31.7807     0.1110    22.8257 </r>
       <r>    32.0759     0.1662    23.0932 </r>
       <r>    32.3710     0.0740    23.2244 </r>
       <r>    32.6662     0.0000    23.2899 </r>
       <r>    32.9614     0.2534    23.3811 </r>
       <r>    33.2566     0.2960    23.5357 </r>
       <r>    33.5517     0.2220    23.6887 </r>
       <r>    33.8469     0.0000    23.8198 </r>
       <r>    34.1421     0.0000    23.8853 </r>
       <r>    34.4373     0.0000    23.9126 </r>
       <r>    34.7325     0.0000    23.9126 </r>
       <r>    35.0276     0.0738    23.9399 </r>
       <r>    35.3228     0.0008    23.9620 </r>
       <r>    35.6180     0.0000    23.9836 </r>
       <r>    35.9132     0.0000    23.9836 </r>
       <r>    36.2083     0.0000    23.9836 </r>
       <r>    36.5035     0.0000    23.9836 </r>
       <r>    36.7987     0.0000    23.9945 </r>
       <r>    37.0939     0.0000    23.9945 </r>
       <r>    37.3890     0.0000    23.9945 </r>
       <r>    37.6842     0.0000    23.9945 </r>
       <r>    37.9794     0.0000    23.9945 </r>
       <r>    38.2746     0.0000    23.9945 </r>
       <r>    38.5697     0.0000    24.0000 </r>
       <r>    38.8649     0.0000    24.0000 </r>
       <r>    39.1601     0.0000    24.0000 </r>
       <r>    39.4553     0.0000    24.0000 </r>
       <r>    39.7504     0.0000    24.0000 </r>
       <r>    40.0456     0.0000    24.0000 </r>
       <r>    40.3408     0.0000    24.0000 </r>
       <r>    40.6360     0.0000    24.0000 </r>
       <r>    40.9311     0.0000    24.0000 </r>
       <r>    41.2263     0.0000    24.0000 </r>
       <r>    41.5215     0.0000    24.0000 </r>
       <r>    41.8167     0.0000    24.0000 </r>
       <r>    42.1118     0.0000    24.0000 </r>
       <r>    42.4070     0.0000    24.0000 </r>
      </set>
     </set>
    </array>
   </total>
  </dos>
 </calculation>
 <structure name="finalpos" >
  <crystal>
   <varray name="basis" >
    <v>       0.00000356       2.02881796       2.02881792 </v>
    <v>       2.02881796       0.00000357       2.02881792 </v>
    <v>       2.02881798       2.02881798       0.00000354 </v>
   </varray>
   <i name="volume">     16.70160054 </i>
   <varray name="rec_basis" >
    <v>      -0.24644957       0.24644914       0.24644914 </v>
    <v>       0.24644914      -0.24644957       0.24644914 </v>
    <v>       0.24644913       0.24644914      -0.24644957 </v>
   </varray>
  </crystal>
  <varray name="positions" >
   <v>       0.00000001       0.00000001       0.99999999 </v>
   <v>       0.49999999       0.49999999       0.50000001 </v>
  </varray>
 </structure>
</modeling>
