unknown system                          
           1
     0.000004    2.028818    2.028818
     2.028818    0.000004    2.028818
     2.028818    2.028818    0.000004
   Li   F 
   1   1
Direct configuration=     1
   0.00000001  0.00000001  0.99999999
   0.49999999  0.49999999  0.50000001
