  12  12   0   0
  0.9897766E+01  0.2688697E-09  0.4820719E-09  0.9163571E-09  0.5000000E-15
  1.000000000000000E-004
  CAR 
 unknown system                          
     10.84482928    -47.14203469  301      4.63391815      1.00000000
    -47.142  0.0000E+00  0.0000E+00
    -46.949  0.0000E+00  0.0000E+00
    -46.755  0.0000E+00  0.0000E+00
    -46.562  0.0000E+00  0.0000E+00
    -46.369  0.0000E+00  0.0000E+00
    -46.176  0.0000E+00  0.0000E+00
    -45.982  0.0000E+00  0.0000E+00
    -45.789  0.0000E+00  0.0000E+00
    -45.596  0.0000E+00  0.0000E+00
    -45.402  0.0000E+00  0.0000E+00
    -45.209  0.0000E+00  0.0000E+00
    -45.016  0.0000E+00  0.0000E+00
    -44.823  0.0000E+00  0.0000E+00
    -44.629  0.0000E+00  0.0000E+00
    -44.436  0.1518E+02  0.2935E+01
    -44.243  0.4746E+02  0.2400E+02
    -44.049  0.0000E+00  0.2400E+02
    -43.856  0.0000E+00  0.2400E+02
    -43.663  0.0000E+00  0.2400E+02
    -43.470  0.0000E+00  0.2400E+02
    -43.276  0.0000E+00  0.2400E+02
    -43.083  0.0000E+00  0.2400E+02
    -42.890  0.0000E+00  0.2400E+02
    -42.696  0.0000E+00  0.2400E+02
    -42.503  0.0000E+00  0.2400E+02
    -42.310  0.0000E+00  0.2400E+02
    -42.117  0.0000E+00  0.2400E+02
    -41.923  0.0000E+00  0.2400E+02
    -41.730  0.0000E+00  0.2400E+02
    -41.537  0.0000E+00  0.2400E+02
    -41.343  0.0000E+00  0.2400E+02
    -41.150  0.0000E+00  0.2400E+02
    -40.957  0.0000E+00  0.2400E+02
    -40.763  0.0000E+00  0.2400E+02
    -40.570  0.0000E+00  0.2400E+02
    -40.377  0.0000E+00  0.2400E+02
    -40.184  0.0000E+00  0.2400E+02
    -39.990  0.0000E+00  0.2400E+02
    -39.797  0.0000E+00  0.2400E+02
    -39.604  0.0000E+00  0.2400E+02
    -39.410  0.0000E+00  0.2400E+02
    -39.217  0.0000E+00  0.2400E+02
    -39.024  0.0000E+00  0.2400E+02
    -38.831  0.0000E+00  0.2400E+02
    -38.637  0.0000E+00  0.2400E+02
    -38.444  0.0000E+00  0.2400E+02
    -38.251  0.0000E+00  0.2400E+02
    -38.057  0.0000E+00  0.2400E+02
    -37.864  0.0000E+00  0.2400E+02
    -37.671  0.0000E+00  0.2400E+02
    -37.478  0.0000E+00  0.2400E+02
    -37.284  0.0000E+00  0.2400E+02
    -37.091  0.0000E+00  0.2400E+02
    -36.898  0.0000E+00  0.2400E+02
    -36.704  0.0000E+00  0.2400E+02
    -36.511  0.0000E+00  0.2400E+02
    -36.318  0.0000E+00  0.2400E+02
    -36.125  0.0000E+00  0.2400E+02
    -35.931  0.0000E+00  0.2400E+02
    -35.738  0.0000E+00  0.2400E+02
    -35.545  0.0000E+00  0.2400E+02
    -35.351  0.0000E+00  0.2400E+02
    -35.158  0.0000E+00  0.2400E+02
    -34.965  0.0000E+00  0.2400E+02
    -34.772  0.0000E+00  0.2400E+02
    -34.578  0.0000E+00  0.2400E+02
    -34.385  0.0000E+00  0.2400E+02
    -34.192  0.0000E+00  0.2400E+02
    -33.998  0.0000E+00  0.2400E+02
    -33.805  0.0000E+00  0.2400E+02
    -33.612  0.0000E+00  0.2400E+02
    -33.418  0.0000E+00  0.2400E+02
    -33.225  0.0000E+00  0.2400E+02
    -33.032  0.0000E+00  0.2400E+02
    -32.839  0.0000E+00  0.2400E+02
    -32.645  0.0000E+00  0.2400E+02
    -32.452  0.0000E+00  0.2400E+02
    -32.259  0.0000E+00  0.2400E+02
    -32.065  0.0000E+00  0.2400E+02
    -31.872  0.0000E+00  0.2400E+02
    -31.679  0.0000E+00  0.2400E+02
    -31.486  0.0000E+00  0.2400E+02
    -31.292  0.0000E+00  0.2400E+02
    -31.099  0.0000E+00  0.2400E+02
    -30.906  0.0000E+00  0.2400E+02
    -30.712  0.0000E+00  0.2400E+02
    -30.519  0.0000E+00  0.2400E+02
    -30.326  0.0000E+00  0.2400E+02
    -30.133  0.0000E+00  0.2400E+02
    -29.939  0.0000E+00  0.2400E+02
    -29.746  0.0000E+00  0.2400E+02
    -29.553  0.0000E+00  0.2400E+02
    -29.359  0.0000E+00  0.2400E+02
    -29.166  0.0000E+00  0.2400E+02
    -28.973  0.0000E+00  0.2400E+02
    -28.780  0.0000E+00  0.2400E+02
    -28.586  0.0000E+00  0.2400E+02
    -28.393  0.0000E+00  0.2400E+02
    -28.200  0.0000E+00  0.2400E+02
    -28.006  0.0000E+00  0.2400E+02
    -27.813  0.0000E+00  0.2400E+02
    -27.620  0.0000E+00  0.2400E+02
    -27.427  0.0000E+00  0.2400E+02
    -27.233  0.0000E+00  0.2400E+02
    -27.040  0.0000E+00  0.2400E+02
    -26.847  0.0000E+00  0.2400E+02
    -26.653  0.0000E+00  0.2400E+02
    -26.460  0.0000E+00  0.2400E+02
    -26.267  0.0000E+00  0.2400E+02
    -26.073  0.0000E+00  0.2400E+02
    -25.880  0.0000E+00  0.2400E+02
    -25.687  0.0000E+00  0.2400E+02
    -25.494  0.0000E+00  0.2400E+02
    -25.300  0.0000E+00  0.2400E+02
    -25.107  0.0000E+00  0.2400E+02
    -24.914  0.0000E+00  0.2400E+02
    -24.720  0.0000E+00  0.2400E+02
    -24.527  0.0000E+00  0.2400E+02
    -24.334  0.0000E+00  0.2400E+02
    -24.141  0.0000E+00  0.2400E+02
    -23.947  0.0000E+00  0.2400E+02
    -23.754  0.0000E+00  0.2400E+02
    -23.561  0.0000E+00  0.2400E+02
    -23.367  0.0000E+00  0.2400E+02
    -23.174  0.0000E+00  0.2400E+02
    -22.981  0.0000E+00  0.2400E+02
    -22.788  0.0000E+00  0.2400E+02
    -22.594  0.0000E+00  0.2400E+02
    -22.401  0.0000E+00  0.2400E+02
    -22.208  0.0000E+00  0.2400E+02
    -22.014  0.0000E+00  0.2400E+02
    -21.821  0.0000E+00  0.2400E+02
    -21.628  0.0000E+00  0.2400E+02
    -21.435  0.0000E+00  0.2400E+02
    -21.241  0.0000E+00  0.2400E+02
    -21.048  0.0000E+00  0.2400E+02
    -20.855  0.0000E+00  0.2400E+02
    -20.661  0.0000E+00  0.2400E+02
    -20.468  0.0000E+00  0.2400E+02
    -20.275  0.0000E+00  0.2400E+02
    -20.081  0.0000E+00  0.2400E+02
    -19.888  0.0000E+00  0.2400E+02
    -19.695  0.0000E+00  0.2400E+02
    -19.502  0.0000E+00  0.2400E+02
    -19.308  0.0000E+00  0.2400E+02
    -19.115  0.0000E+00  0.2400E+02
    -18.922  0.0000E+00  0.2400E+02
    -18.728  0.0000E+00  0.2400E+02
    -18.535  0.0000E+00  0.2400E+02
    -18.342  0.0000E+00  0.2400E+02
    -18.149  0.0000E+00  0.2400E+02
    -17.955  0.0000E+00  0.2400E+02
    -17.762  0.0000E+00  0.2400E+02
    -17.569  0.0000E+00  0.2400E+02
    -17.375  0.0000E+00  0.2400E+02
    -17.182  0.0000E+00  0.2400E+02
    -16.989  0.0000E+00  0.2400E+02
    -16.796  0.0000E+00  0.2400E+02
    -16.602  0.0000E+00  0.2400E+02
    -16.409  0.0000E+00  0.2400E+02
    -16.216  0.0000E+00  0.2400E+02
    -16.022  0.0000E+00  0.2400E+02
    -15.829  0.0000E+00  0.2400E+02
    -15.636  0.3921E-01  0.2401E+02
    -15.443  0.7564E+00  0.2423E+02
    -15.249  0.1172E+01  0.2458E+02
    -15.056  0.1340E+01  0.2528E+02
    -14.863  0.2044E+01  0.2579E+02
    -14.669  0.9729E+00  0.2630E+02
    -14.476  0.2053E+01  0.2736E+02
    -14.283  0.3958E+01  0.2885E+02
    -14.090  0.5980E+01  0.3106E+02
    -13.896  0.3451E+01  0.3320E+02
    -13.703  0.2624E+01  0.3526E+02
    -13.510  0.2587E+01  0.3600E+02
    -13.316  0.3205E+01  0.3703E+02
    -13.123  0.0000E+00  0.4000E+02
    -12.930  0.0000E+00  0.4000E+02
    -12.736  0.0000E+00  0.4000E+02
    -12.543  0.0000E+00  0.4000E+02
    -12.350  0.0000E+00  0.4000E+02
    -12.157  0.0000E+00  0.4000E+02
    -11.963  0.0000E+00  0.4000E+02
    -11.770  0.0000E+00  0.4000E+02
    -11.577  0.0000E+00  0.4000E+02
    -11.383  0.0000E+00  0.4000E+02
    -11.190  0.0000E+00  0.4000E+02
    -10.997  0.0000E+00  0.4000E+02
    -10.804  0.0000E+00  0.4000E+02
    -10.610  0.0000E+00  0.4000E+02
    -10.417  0.0000E+00  0.4000E+02
    -10.224  0.0000E+00  0.4000E+02
    -10.030  0.0000E+00  0.4000E+02
     -9.837  0.0000E+00  0.4000E+02
     -9.644  0.0000E+00  0.4000E+02
     -9.451  0.0000E+00  0.4000E+02
     -9.257  0.0000E+00  0.4000E+02
     -9.064  0.0000E+00  0.4000E+02
     -8.871  0.0000E+00  0.4000E+02
     -8.677  0.0000E+00  0.4000E+02
     -8.484  0.0000E+00  0.4000E+02
     -8.291  0.0000E+00  0.4000E+02
     -8.098  0.0000E+00  0.4000E+02
     -7.904  0.0000E+00  0.4000E+02
     -7.711  0.0000E+00  0.4000E+02
     -7.518  0.0000E+00  0.4000E+02
     -7.324  0.0000E+00  0.4000E+02
     -7.131  0.0000E+00  0.4000E+02
     -6.938  0.0000E+00  0.4000E+02
     -6.745  0.0000E+00  0.4000E+02
     -6.551  0.0000E+00  0.4000E+02
     -6.358  0.0000E+00  0.4000E+02
     -6.165  0.0000E+00  0.4000E+02
     -5.971  0.0000E+00  0.4000E+02
     -5.778  0.0000E+00  0.4000E+02
     -5.585  0.0000E+00  0.4000E+02
     -5.391  0.0000E+00  0.4000E+02
     -5.198  0.0000E+00  0.4000E+02
     -5.005  0.0000E+00  0.4000E+02
     -4.812  0.0000E+00  0.4000E+02
     -4.618  0.0000E+00  0.4000E+02
     -4.425  0.0000E+00  0.4000E+02
     -4.232  0.0000E+00  0.4000E+02
     -4.038  0.0000E+00  0.4000E+02
     -3.845  0.0000E+00  0.4000E+02
     -3.652  0.0000E+00  0.4000E+02
     -3.459  0.0000E+00  0.4000E+02
     -3.265  0.0000E+00  0.4000E+02
     -3.072  0.3942E-01  0.4001E+02
     -2.879  0.4100E+00  0.4013E+02
     -2.685  0.3191E+00  0.4034E+02
     -2.492  0.1857E+01  0.4094E+02
     -2.299  0.3182E+01  0.4210E+02
     -2.106  0.5676E+01  0.4460E+02
     -1.912  0.5196E+01  0.4652E+02
     -1.719  0.3869E+01  0.4864E+02
     -1.526  0.7687E+01  0.5185E+02
     -1.332  0.2310E+01  0.5356E+02
     -1.139  0.3178E+01  0.5511E+02
     -0.946  0.1880E+01  0.5666E+02
     -0.753  0.1716E+01  0.5767E+02
     -0.559  0.2787E+01  0.5880E+02
     -0.366  0.2825E+01  0.6064E+02
     -0.173  0.3426E+01  0.6249E+02
      0.021  0.4003E+01  0.6406E+02
      0.214  0.4601E+01  0.6553E+02
      0.407  0.5783E+01  0.6729E+02
      0.600  0.3821E+01  0.6881E+02
      0.794  0.3999E+01  0.7095E+02
      0.987  0.6726E+01  0.7364E+02
      1.180  0.5293E+01  0.7588E+02
      1.374  0.3940E+01  0.7792E+02
      1.567  0.2374E+01  0.7903E+02
      1.760  0.3450E+01  0.8052E+02
      1.954  0.2101E+01  0.8186E+02
      2.147  0.2877E+01  0.8318E+02
      2.340  0.2294E+01  0.8434E+02
      2.533  0.5164E+01  0.8601E+02
      2.727  0.2211E+01  0.8700E+02
      2.920  0.4406E+00  0.8773E+02
      3.113  0.3008E+00  0.8797E+02
      3.307  0.7839E-01  0.8800E+02
      3.500  0.1548E-12  0.8800E+02
      3.693  0.1430E+01  0.8830E+02
      3.886  0.5094E+01  0.9036E+02
      4.080  0.5417E+01  0.9351E+02
      4.273  0.5564E+01  0.9607E+02
      4.466  0.2997E+01  0.9828E+02
      4.660  0.5632E+01  0.1003E+03
      4.853  0.7040E+01  0.1032E+03
      5.046  0.2693E+01  0.1051E+03
      5.239  0.3835E+01  0.1068E+03
      5.433  0.4516E+01  0.1089E+03
      5.626  0.3797E+01  0.1108E+03
      5.819  0.1601E+01  0.1118E+03
      6.013  0.0000E+00  0.1120E+03
      6.206  0.3907E-01  0.1120E+03
      6.399  0.4704E+00  0.1121E+03
      6.592  0.3450E+01  0.1130E+03
      6.786  0.3038E+01  0.1146E+03
      6.979  0.2914E+01  0.1159E+03
      7.172  0.2068E+01  0.1171E+03
      7.366  0.1427E+01  0.1178E+03
      7.559  0.1880E+01  0.1187E+03
      7.752  0.1377E+01  0.1194E+03
      7.945  0.5855E+00  0.1197E+03
      8.139  0.1577E+00  0.1199E+03
      8.332  0.0000E+00  0.1200E+03
      8.525  0.0000E+00  0.1200E+03
      8.719  0.0000E+00  0.1200E+03
      8.912  0.0000E+00  0.1200E+03
      9.105  0.0000E+00  0.1200E+03
      9.299  0.0000E+00  0.1200E+03
      9.492  0.0000E+00  0.1200E+03
      9.685  0.0000E+00  0.1200E+03
      9.878  0.0000E+00  0.1200E+03
     10.072  0.0000E+00  0.1200E+03
     10.265  0.0000E+00  0.1200E+03
     10.458  0.0000E+00  0.1200E+03
     10.652  0.0000E+00  0.1200E+03
     10.845  0.0000E+00  0.1200E+03
