 vasp.5.4.4.18Apr17-6-g9f103f2a35 (build Nov 08 2022 17:27:33) complex          
  
 executed on             LinuxIFC date 2022.11.22  21:36:00
 running on   16 total cores
 distrk:  each k-point on   16 cores,    1 groups
 distr:  one band on NCORES_PER_BAND=   4 cores,    4 groups


--------------------------------------------------------------------------------------------------------


 INCAR:
 POTCAR:    PAW_PBE Mn_pv 02Aug2007               
 POTCAR:    PAW_PBE O 08Apr2002                   
 POTCAR:    PAW_PBE Mn_pv 02Aug2007               
   VRHFIN =Mn: 3p4s3d                                                           
   LEXCH  = PE                                                                  
   EATOM  =  2025.2664 eV,  148.8529 Ry                                         
                                                                                
   TITEL  = PAW_PBE Mn_pv 02Aug2007                                             
   LULTRA =        F    use ultrasoft PP ?                                      
   IUNSCR =        1    unscreen: 0-lin 1-nonlin 2-no                           
   RPACOR =    2.080    partial core radius                                     
   POMASS =   54.938; ZVAL   =   13.000    mass and valenz                      
   RCORE  =    2.300    outmost cutoff radius                                   
   RWIGS  =    2.500; RWIGS  =    1.323    wigner-seitz radius (au A)           
   ENMAX  =  269.864; ENMIN  =  202.398 eV                                      
   ICORE  =        3    local potential                                         
   LCOR   =        T    correct aug charges                                     
   LPAW   =        T    paw PP                                                  
   EAUG   =  569.085                                                            
   DEXC   =    0.000                                                            
   RMAX   =    2.343    core radius for proj-oper                               
   RAUG   =    1.300    factor for augmentation sphere                          
   RDEP   =    2.338    radius for radial grids                                 
   RDEPT  =    1.798    core radius for aug-charge                              
                                                                                
   Atomic configuration                                                         
    8 entries                                                                   
     n  l   j            E        occ.                                          
     1  0  0.50     -6424.8287   2.0000                                         
     2  0  0.50      -739.1154   2.0000                                         
     2  1  1.50      -625.3949   6.0000                                         
     3  0  0.50       -81.6100   2.0000                                         
     3  1  1.50       -50.4667   6.0000                                         
     3  2  2.50        -3.3745   6.0000                                         
     4  0  0.50        -4.1331   1.0000                                         
     4  3  2.50        -1.3606   0.0000                                         
   Description                                                                  
     l       E           TYP  RCUT    TYP  RCUT                                 
     1    -50.4666628     23  2.000                                             
     1     -1.3605826     23  2.000                                             
     2     -3.3744729     23  2.300                                             
     2     -4.7350555     23  2.300                                             
     0     -4.1331431     23  2.300                                             
     0      7.6656591     23  2.300                                             
     3      9.5240782     23  2.300                                             
  local pseudopotential read in
  partial core-charges read in
  partial kinetic energy density read in
  atomic valenz-charges read in
  non local Contribution for L=           1  read in
    real space projection operators read in
  non local Contribution for L=           1  read in
    real space projection operators read in
  non local Contribution for L=           2  read in
    real space projection operators read in
  non local Contribution for L=           2  read in
    real space projection operators read in
  non local Contribution for L=           0  read in
    real space projection operators read in
  non local Contribution for L=           0  read in
    real space projection operators read in
    PAW grid and wavefunctions read in
 
   number of l-projection  operators is LMAX  =           6
   number of lm-projection operators is LMMAX =          18
 
 POTCAR:    PAW_PBE O 08Apr2002                   
   VRHFIN =O: s2p4                                                              
   LEXCH  = PE                                                                  
   EATOM  =   432.3788 eV,   31.7789 Ry                                         
                                                                                
   TITEL  = PAW_PBE O 08Apr2002                                                 
   LULTRA =        F    use ultrasoft PP ?                                      
   IUNSCR =        1    unscreen: 0-lin 1-nonlin 2-no                           
   RPACOR =    1.200    partial core radius                                     
   POMASS =   16.000; ZVAL   =    6.000    mass and valenz                      
   RCORE  =    1.520    outmost cutoff radius                                   
   RWIGS  =    1.550; RWIGS  =    0.820    wigner-seitz radius (au A)           
   ENMAX  =  400.000; ENMIN  =  300.000 eV                                      
   ICORE  =        2    local potential                                         
   LCOR   =        T    correct aug charges                                     
   LPAW   =        T    paw PP                                                  
   EAUG   =  605.392                                                            
   DEXC   =    0.000                                                            
   RMAX   =    1.553    core radius for proj-oper                               
   RAUG   =    1.300    factor for augmentation sphere                          
   RDEP   =    1.550    radius for radial grids                                 
   RDEPT  =    1.329    core radius for aug-charge                              
                                                                                
   Atomic configuration                                                         
    4 entries                                                                   
     n  l   j            E        occ.                                          
     1  0  0.50      -514.6923   2.0000                                         
     2  0  0.50       -23.9615   2.0000                                         
     2  1  0.50        -9.0305   4.0000                                         
     3  2  1.50        -9.5241   0.0000                                         
   Description                                                                  
     l       E           TYP  RCUT    TYP  RCUT                                 
     0    -23.9615318     23  1.200                                             
     0     -9.5240782     23  1.200                                             
     1     -9.0304911     23  1.520                                             
     1      8.1634956     23  1.520                                             
     2     -9.5240782      7  1.500                                             
  local pseudopotential read in
  partial core-charges read in
  partial kinetic energy density read in
  kinetic energy density of atom read in
  atomic valenz-charges read in
  non local Contribution for L=           0  read in
    real space projection operators read in
  non local Contribution for L=           0  read in
    real space projection operators read in
  non local Contribution for L=           1  read in
    real space projection operators read in
  non local Contribution for L=           1  read in
    real space projection operators read in
    PAW grid and wavefunctions read in
 
   number of l-projection  operators is LMAX  =           4
   number of lm-projection operators is LMMAX =           8
 
  PAW_PBE Mn_pv 02Aug2007               :
 energy of atom  1       EATOM=-2025.2664
 kinetic energy error for atom=    0.0058 (will be added to EATOM!!)
  PAW_PBE O 08Apr2002                   :
 energy of atom  2       EATOM= -432.3788
 kinetic energy error for atom=    0.0208 (will be added to EATOM!!)
 
 
 POSCAR: Mn4 O8                                  
  positions in direct lattice
  velocities in cartesian coordinates
 exchange correlation table for  LEXCH =        8
   RHO(1)=    0.500       N(1)  =     2000
   RHO(2)=  100.500       N(2)  =     4000

 VTST: version 3.2, (02/03/18)

 CHAIN: initializing optimizer
 
 OPT: Using VASP Conjugate-Gradient optimizer
 CHAIN: Read ICHAIN            0
 
 POSCAR: Mn4 O8                                  
  positions in direct lattice
  velocities in cartesian coordinates
 


--------------------------------------------------------------------------------------------------------


 ion  position               nearest neighbor table
   1  0.250  0.051  0.858-  10 1.80  12 1.88  12 1.88   6 1.89   6 1.89   7 1.93   2 2.97   2 2.97

   2  0.750  0.949  0.142-  11 1.80   9 1.88   9 1.88   7 1.89   7 1.89   6 1.93   1 2.97   1 2.97

   3  0.750  0.551  0.642-  12 1.80  10 1.88  10 1.88   5 1.89   5 1.89   8 1.93   4 2.97   4 2.97

   4  0.250  0.449  0.358-   9 1.80  11 1.88  11 1.88   8 1.89   8 1.89   5 1.93   3 2.97   3 2.97

   5  0.250  0.702  0.522-   3 1.89   3 1.89   4 1.93
   6  0.750  0.202  0.978-   1 1.89   1 1.89   2 1.93
   7  0.250  0.798  0.022-   2 1.89   2 1.89   1 1.93
   8  0.750  0.298  0.478-   4 1.89   4 1.89   3 1.93
   9  0.250  0.160  0.233-   4 1.80   2 1.88   2 1.88
  10  0.250  0.340  0.733-   1 1.80   3 1.88   3 1.88
  11  0.750  0.660  0.267-   2 1.80   4 1.88   4 1.88
  12  0.750  0.840  0.767-   3 1.80   1 1.88   1 1.88
 

IMPORTANT INFORMATION: All symmetrisations will be switched off!
NOSYMM: (Re-)initialisation of all symmetry stuff for point group C_1.

 
 

Automatic generation of k-mesh.
 generate k-points for:   11    6    4
Space group operators:
 irot       det(A)        alpha          n_x          n_y          n_z        tau_x        tau_y        tau_z
    1     1.000000     0.000000     1.000000     0.000000     0.000000     0.000000     0.000000     0.000000
 
 Subroutine IBZKPT returns following result:
 ===========================================
 
 Found    134 irreducible k-points:
 
 Following reciprocal coordinates:
            Coordinates               Weight
  0.000000  0.000000  0.000000      1.000000
  0.090909 -0.000000  0.000000      2.000000
  0.181818 -0.000000  0.000000      2.000000
  0.272727 -0.000000 -0.000000      2.000000
  0.363636 -0.000000  0.000000      2.000000
  0.454545 -0.000000  0.000000      2.000000
  0.000000  0.166667 -0.000000      2.000000
  0.090909  0.166667  0.000000      2.000000
  0.181818  0.166667 -0.000000      2.000000
  0.272727  0.166667  0.000000      2.000000
  0.363636  0.166667 -0.000000      2.000000
  0.454545  0.166667 -0.000000      2.000000
 -0.454545  0.166667  0.000000      2.000000
 -0.363636  0.166667 -0.000000      2.000000
 -0.272727  0.166667 -0.000000      2.000000
 -0.181818  0.166667  0.000000      2.000000
 -0.090909  0.166667 -0.000000      2.000000
  0.000000  0.333333 -0.000000      2.000000
  0.090909  0.333333 -0.000000      2.000000
  0.181818  0.333333  0.000000      2.000000
  0.272727  0.333333 -0.000000      2.000000
  0.363636  0.333333 -0.000000      2.000000
  0.454545  0.333333 -0.000000      2.000000
 -0.454545  0.333333  0.000000      2.000000
 -0.363636  0.333333  0.000000      2.000000
 -0.272727  0.333333 -0.000000      2.000000
 -0.181818  0.333333 -0.000000      2.000000
 -0.090909  0.333333 -0.000000      2.000000
 -0.000000  0.500000  0.000000      1.000000
  0.090909  0.500000  0.000000      2.000000
  0.181818  0.500000 -0.000000      2.000000
  0.272727  0.500000  0.000000      2.000000
  0.363636  0.500000  0.000000      2.000000
  0.454545  0.500000 -0.000000      2.000000
  0.000000 -0.000000  0.250000      2.000000
  0.090909  0.000000  0.250000      2.000000
  0.181818  0.000000  0.250000      2.000000
  0.272727  0.000000  0.250000      2.000000
  0.363636 -0.000000  0.250000      2.000000
  0.454545  0.000000  0.250000      2.000000
 -0.454545 -0.000000  0.250000      2.000000
 -0.363636 -0.000000  0.250000      2.000000
 -0.272727 -0.000000  0.250000      2.000000
 -0.181818  0.000000  0.250000      2.000000
 -0.090909 -0.000000  0.250000      2.000000
  0.000000  0.166667  0.250000      2.000000
  0.090909  0.166667  0.250000      2.000000
  0.181818  0.166667  0.250000      2.000000
  0.272727  0.166667  0.250000      2.000000
  0.363636  0.166667  0.250000      2.000000
  0.454545  0.166667  0.250000      2.000000
 -0.454545  0.166667  0.250000      2.000000
 -0.363636  0.166667  0.250000      2.000000
 -0.272727  0.166667  0.250000      2.000000
 -0.181818  0.166667  0.250000      2.000000
 -0.090909  0.166667  0.250000      2.000000
  0.000000  0.333333  0.250000      2.000000
  0.090909  0.333333  0.250000      2.000000
  0.181818  0.333333  0.250000      2.000000
  0.272727  0.333333  0.250000      2.000000
  0.363636  0.333333  0.250000      2.000000
  0.454545  0.333333  0.250000      2.000000
 -0.454545  0.333333  0.250000      2.000000
 -0.363636  0.333333  0.250000      2.000000
 -0.272727  0.333333  0.250000      2.000000
 -0.181818  0.333333  0.250000      2.000000
 -0.090909  0.333333  0.250000      2.000000
 -0.000000  0.500000  0.250000      2.000000
  0.090909  0.500000  0.250000      2.000000
  0.181818  0.500000  0.250000      2.000000
  0.272727  0.500000  0.250000      2.000000
  0.363636  0.500000  0.250000      2.000000
  0.454545  0.500000  0.250000      2.000000
 -0.454545  0.500000  0.250000      2.000000
 -0.363636  0.500000  0.250000      2.000000
 -0.272727  0.500000  0.250000      2.000000
 -0.181818  0.500000  0.250000      2.000000
 -0.090909  0.500000  0.250000      2.000000
  0.000000 -0.333333  0.250000      2.000000
  0.090909 -0.333333  0.250000      2.000000
  0.181818 -0.333333  0.250000      2.000000
  0.272727 -0.333333  0.250000      2.000000
  0.363636 -0.333333  0.250000      2.000000
  0.454545 -0.333333  0.250000      2.000000
 -0.454545 -0.333333  0.250000      2.000000
 -0.363636 -0.333333  0.250000      2.000000
 -0.272727 -0.333333  0.250000      2.000000
 -0.181818 -0.333333  0.250000      2.000000
 -0.090909 -0.333333  0.250000      2.000000
  0.000000 -0.166667  0.250000      2.000000
  0.090909 -0.166667  0.250000      2.000000
  0.181818 -0.166667  0.250000      2.000000
  0.272727 -0.166667  0.250000      2.000000
  0.363636 -0.166667  0.250000      2.000000
  0.454545 -0.166667  0.250000      2.000000
 -0.454545 -0.166667  0.250000      2.000000
 -0.363636 -0.166667  0.250000      2.000000
 -0.272727 -0.166667  0.250000      2.000000
 -0.181818 -0.166667  0.250000      2.000000
 -0.090909 -0.166667  0.250000      2.000000
  0.000000 -0.000000  0.500000      1.000000
  0.090909 -0.000000  0.500000      2.000000
  0.181818  0.000000  0.500000      2.000000
  0.272727 -0.000000  0.500000      2.000000
  0.363636  0.000000  0.500000      2.000000
  0.454545 -0.000000  0.500000      2.000000
 -0.000000  0.166667  0.500000      2.000000
  0.090909  0.166667  0.500000      2.000000
  0.181818  0.166667  0.500000      2.000000
  0.272727  0.166667  0.500000      2.000000
  0.363636  0.166667  0.500000      2.000000
  0.454545  0.166667  0.500000      2.000000
 -0.454545  0.166667  0.500000      2.000000
 -0.363636  0.166667  0.500000      2.000000
 -0.272727  0.166667  0.500000      2.000000
 -0.181818  0.166667  0.500000      2.000000
 -0.090909  0.166667  0.500000      2.000000
  0.000000  0.333333  0.500000      2.000000
  0.090909  0.333333  0.500000      2.000000
  0.181818  0.333333  0.500000      2.000000
  0.272727  0.333333  0.500000      2.000000
  0.363636  0.333333  0.500000      2.000000
  0.454545  0.333333  0.500000      2.000000
 -0.454545  0.333333  0.500000      2.000000
 -0.363636  0.333333  0.500000      2.000000
 -0.272727  0.333333  0.500000      2.000000
 -0.181818  0.333333  0.500000      2.000000
 -0.090909  0.333333  0.500000      2.000000
 -0.000000  0.500000  0.500000      1.000000
  0.090909  0.500000  0.500000      2.000000
  0.181818  0.500000  0.500000      2.000000
  0.272727  0.500000  0.500000      2.000000
  0.363636  0.500000  0.500000      2.000000
  0.454545  0.500000  0.500000      2.000000
 
 Following cartesian coordinates:
            Coordinates               Weight
  0.000000  0.000000  0.000000      1.000000
  0.033812 -0.000000  0.000000      2.000000
  0.067623 -0.000000  0.000000      2.000000
  0.101435 -0.000000  0.000000      2.000000
  0.135246 -0.000000  0.000000      2.000000
  0.169058 -0.000001  0.000000      2.000000
 -0.000000  0.034573 -0.000005      2.000000
  0.033811  0.034573 -0.000005      2.000000
  0.067623  0.034573 -0.000005      2.000000
  0.101435  0.034573 -0.000005      2.000000
  0.135246  0.034573 -0.000005      2.000000
  0.169058  0.034572 -0.000005      2.000000
 -0.169058  0.034574 -0.000005      2.000000
 -0.135246  0.034573 -0.000005      2.000000
 -0.101435  0.034573 -0.000005      2.000000
 -0.067623  0.034573 -0.000005      2.000000
 -0.033812  0.034573 -0.000005      2.000000
 -0.000000  0.069146 -0.000011      2.000000
  0.033811  0.069146 -0.000011      2.000000
  0.067623  0.069146 -0.000011      2.000000
  0.101434  0.069146 -0.000011      2.000000
  0.135246  0.069146 -0.000011      2.000000
  0.169058  0.069145 -0.000011      2.000000
 -0.169058  0.069147 -0.000011      2.000000
 -0.135247  0.069146 -0.000011      2.000000
 -0.101435  0.069146 -0.000011      2.000000
 -0.067623  0.069146 -0.000011      2.000000
 -0.033812  0.069146 -0.000011      2.000000
 -0.000000  0.103719 -0.000016      1.000000
  0.033811  0.103719 -0.000016      2.000000
  0.067623  0.103719 -0.000016      2.000000
  0.101434  0.103719 -0.000016      2.000000
  0.135246  0.103719 -0.000016      2.000000
  0.169057  0.103718 -0.000016      2.000000
 -0.000000 -0.000004  0.027282      2.000000
  0.033812 -0.000004  0.027282      2.000000
  0.067623 -0.000004  0.027282      2.000000
  0.101435 -0.000004  0.027282      2.000000
  0.135246 -0.000004  0.027282      2.000000
  0.169058 -0.000004  0.027282      2.000000
 -0.169058 -0.000003  0.027282      2.000000
 -0.135246 -0.000003  0.027282      2.000000
 -0.101435 -0.000003  0.027282      2.000000
 -0.067623 -0.000003  0.027282      2.000000
 -0.033812 -0.000004  0.027282      2.000000
 -0.000000  0.034569  0.027277      2.000000
  0.033811  0.034569  0.027277      2.000000
  0.067623  0.034569  0.027277      2.000000
  0.101435  0.034569  0.027277      2.000000
  0.135246  0.034569  0.027277      2.000000
  0.169058  0.034569  0.027277      2.000000
 -0.169058  0.034570  0.027277      2.000000
 -0.135246  0.034570  0.027277      2.000000
 -0.101435  0.034570  0.027277      2.000000
 -0.067623  0.034570  0.027277      2.000000
 -0.033812  0.034569  0.027277      2.000000
 -0.000000  0.069142  0.027271      2.000000
  0.033811  0.069142  0.027271      2.000000
  0.067623  0.069142  0.027271      2.000000
  0.101434  0.069142  0.027271      2.000000
  0.135246  0.069142  0.027271      2.000000
  0.169058  0.069142  0.027271      2.000000
 -0.169058  0.069143  0.027271      2.000000
 -0.135247  0.069143  0.027271      2.000000
 -0.101435  0.069143  0.027271      2.000000
 -0.067623  0.069143  0.027271      2.000000
 -0.033812  0.069142  0.027271      2.000000
 -0.000000  0.103715  0.027266      2.000000
  0.033811  0.103715  0.027266      2.000000
  0.067623  0.103715  0.027266      2.000000
  0.101434  0.103715  0.027266      2.000000
  0.135246  0.103715  0.027266      2.000000
  0.169057  0.103715  0.027266      2.000000
 -0.169058  0.103716  0.027266      2.000000
 -0.135247  0.103716  0.027266      2.000000
 -0.101435  0.103716  0.027266      2.000000
 -0.067624  0.103716  0.027266      2.000000
 -0.033812  0.103715  0.027266      2.000000
  0.000000 -0.069150  0.027293      2.000000
  0.033812 -0.069150  0.027293      2.000000
  0.067623 -0.069150  0.027293      2.000000
  0.101435 -0.069150  0.027293      2.000000
  0.135247 -0.069150  0.027293      2.000000
  0.169058 -0.069150  0.027293      2.000000
 -0.169058 -0.069149  0.027293      2.000000
 -0.135246 -0.069149  0.027293      2.000000
 -0.101435 -0.069149  0.027293      2.000000
 -0.067623 -0.069149  0.027293      2.000000
 -0.033811 -0.069150  0.027293      2.000000
  0.000000 -0.034577  0.027287      2.000000
  0.033812 -0.034577  0.027287      2.000000
  0.067623 -0.034577  0.027287      2.000000
  0.101435 -0.034577  0.027287      2.000000
  0.135246 -0.034577  0.027287      2.000000
  0.169058 -0.034577  0.027287      2.000000
 -0.169058 -0.034576  0.027287      2.000000
 -0.135246 -0.034576  0.027287      2.000000
 -0.101435 -0.034576  0.027287      2.000000
 -0.067623 -0.034576  0.027287      2.000000
 -0.033811 -0.034577  0.027287      2.000000
 -0.000000 -0.000007  0.054564      1.000000
  0.033812 -0.000007  0.054564      2.000000
  0.067623 -0.000008  0.054564      2.000000
  0.101435 -0.000008  0.054564      2.000000
  0.135246 -0.000008  0.054564      2.000000
  0.169058 -0.000008  0.054564      2.000000
 -0.000000  0.034566  0.054559      2.000000
  0.033811  0.034566  0.054559      2.000000
  0.067623  0.034565  0.054559      2.000000
  0.101435  0.034565  0.054559      2.000000
  0.135246  0.034565  0.054559      2.000000
  0.169058  0.034565  0.054559      2.000000
 -0.169058  0.034566  0.054559      2.000000
 -0.135246  0.034566  0.054559      2.000000
 -0.101435  0.034566  0.054559      2.000000
 -0.067623  0.034566  0.054559      2.000000
 -0.033812  0.034566  0.054559      2.000000
 -0.000000  0.069139  0.054553      2.000000
  0.033811  0.069139  0.054553      2.000000
  0.067623  0.069138  0.054553      2.000000
  0.101434  0.069138  0.054553      2.000000
  0.135246  0.069138  0.054553      2.000000
  0.169058  0.069138  0.054553      2.000000
 -0.169058  0.069139  0.054553      2.000000
 -0.135247  0.069139  0.054553      2.000000
 -0.101435  0.069139  0.054553      2.000000
 -0.067623  0.069139  0.054553      2.000000
 -0.033812  0.069139  0.054553      2.000000
 -0.000000  0.103712  0.054548      1.000000
  0.033811  0.103712  0.054548      2.000000
  0.067623  0.103711  0.054548      2.000000
  0.101434  0.103711  0.054548      2.000000
  0.135246  0.103711  0.054548      2.000000
  0.169057  0.103711  0.054548      2.000000
 


--------------------------------------------------------------------------------------------------------




 Dimension of arrays:
   k-points           NKPTS =    134   k-points in BZ     NKDIM =    134   number of bands    NBANDS=     60
   number of dos      NEDOS =    301   number of ions     NIONS =     12
   non local maximal  LDIM  =      6   non local SUM 2l+1 LMDIM =     18
   total plane-waves  NPLWV =  50400
   max r-space proj   IRMAX =      1   max aug-charges    IRDMAX=  13074
   dimension x,y,z NGX =    20 NGY =   36 NGZ =   70
   dimension x,y,z NGXF=    40 NGYF=   72 NGZF=  140
   support grid    NGXF=    40 NGYF=   72 NGZF=  140
   ions per type =               4   8
   NGX,Y,Z   is equivalent  to a cutoff of  12.37, 12.41, 12.70 a.u.
   NGXF,Y,Z  is equivalent  to a cutoff of  24.73, 24.83, 25.40 a.u.

 SYSTEM =  unknown system                          
 POSCAR =  Mn4 O8                                  

 Startparameter for this run:
   NWRITE =      2    write-flag & timer
   PREC   = accura    normal or accurate (medium, high low for compatibility)
   ISTART =      1    job   : 0-new  1-cont  2-samecut
   ICHARG =      0    charge: 1-file 2-atom 10-const
   ISPIN  =      1    spin polarized calculation?
   LNONCOLLINEAR =      F non collinear calculations
   LSORBIT =      F    spin-orbit coupling
   INIWAV =      1    electr: 0-lowe 1-rand  2-diag
   LASPH  =      T    aspherical Exc in radial PAW
   METAGGA=      F    non-selfconsistent MetaGGA calc.

 Electronic Relaxation 1
   ENCUT  =  520.0 eV  38.22 Ry    6.18 a.u.   5.00  8.96 17.04*2*pi/ulx,y,z
   ENINI  =  520.0     initial cutoff
   ENAUG  = 1040.0 eV  augmentation charge cutoff
   NELM   =    100;   NELMIN=  2; NELMDL=  0     # of ELM steps 
   EDIFF  = 0.1E-05   stopping-criterion for ELM
   LREAL  =      F    real-space projection
   NLSPLINE    = F    spline interpolate recip. space projectors
   LCOMPAT=      F    compatible to vasp.4.4
   GGA_COMPAT  = T    GGA compatible to vasp.4.4-vasp.4.6
   LMAXPAW     = -100 max onsite density
   LMAXMIX     =    4 max onsite mixed and CHGCAR
   VOSKOWN=      0    Vosko Wilk Nusair interpolation
   ROPT   =    0.00000   0.00000
 Ionic relaxation
   EDIFFG = -.3E-01   stopping-criterion for IOM
   NSW    =      0    number of steps for IOM
   NBLOCK =      1;   KBLOCK =      1    inner block; outer block 
   IBRION =     -1    ionic relax: 0-MD 1-quasi-New 2-CG
   NFREE  =      1    steps in history (QN), initial steepest desc. (CG)
   ISIF   =      3    stress and relaxation
   IWAVPR =     10    prediction:  0-non 1-charg 2-wave 3-comb
   ISYM   =      0    0-nonsym 1-usesym 2-fastsym
   LCORR  =      T    Harris-Foulkes like correction to forces

   POTIM  = 0.5000    time-step for ionic-motion
   TEIN   =    0.0    initial temperature
   TEBEG  =    0.0;   TEEND  =   0.0 temperature during run
   SMASS  =  -3.00    Nose mass-parameter (am)
   estimated Nose-frequenzy (Omega)   =  0.10E-29 period in steps =****** mass=  -0.165E-27a.u.
   SCALEE = 1.0000    scale energy and forces
   NPACO  =    256;   APACO  = 16.0  distance and # of slots for P.C.
   PSTRESS=    0.0 pullay stress

  Mass of Ions in am
   POMASS =  54.94 16.00
  Ionic Valenz
   ZVAL   =  13.00  6.00
  Atomic Wigner-Seitz radii
   RWIGS  =  -1.00 -1.00
  virtual crystal weights 
   VCA    =   1.00  1.00
   NELECT =     100.0000    total number of electrons
   NUPDOWN=      -1.0000    fix difference up-down

 DOS related values:
   EMIN   =  10.00;   EMAX   =-10.00  energy-range for DOS
   EFERMI =   0.00
   ISMEAR =     0;   SIGMA  =   0.01  broadening in eV -4-tet -1-fermi 0-gaus

 Electronic relaxation 2 (details)
   IALGO  =     68    algorithm
   LDIAG  =      T    sub-space diagonalisation (order eigenvalues)
   LSUBROT=      F    optimize rotation matrix (better conditioning)
   TURBO    =      0    0=normal 1=particle mesh
   IRESTART =      0    0=no restart 2=restart with 2 vectors
   NREBOOT  =      0    no. of reboots
   NMIN     =      0    reboot dimension
   EREF     =   0.00    reference energy to select bands
   IMIX   =      4    mixing-type and parameters
     AMIX     =   0.40;   BMIX     =  1.00
     AMIX_MAG =   1.60;   BMIX_MAG =  1.00
     AMIN     =   0.10
     WC   =   100.;   INIMIX=   1;  MIXPRE=   1;  MAXMIX= -45

 Intra band minimization:
   WEIMIN = 0.0000     energy-eigenvalue tresh-hold
   EBREAK =  0.42E-08  absolut break condition
   DEPER  =   0.30     relativ break condition  

   TIME   =   0.40     timestep for ELM

  volume/ion in A,a.u.               =       9.90        66.79
  Fermi-wavevector in a.u.,A,eV,Ry     =   1.545855  2.921242 32.513392  2.389667
  Thomas-Fermi vector in A             =   2.651174
 
 Write flags
   LWAVE        =      T    write WAVECAR
   LDOWNSAMPLE  =      F    k-point downsampling of WAVECAR
   LCHARG       =      T    write CHGCAR
   LVTOT        =      F    write LOCPOT, total local potential
   LVHAR        =      T    write LOCPOT, Hartree potential only
   LELF         =      F    write electronic localiz. function (ELF)
   LORBIT       =      0    0 simple, 1 ext, 2 COOP (PROOUT), +10 PAW based schemes


 Dipole corrections
   LMONO  =      F    monopole corrections only (constant potential shift)
   LDIPOL =      F    correct potential (dipole corrections)
   IDIPOL =      0    1-x, 2-y, 3-z, 4-all directions 
   EPSILON=  1.0000000 bulk dielectric constant

 Exchange correlation treatment:
   GGA     =    PE    GGA type
   LEXCH   =     8    internal setting for exchange type
   VOSKOWN=      0    Vosko Wilk Nusair interpolation
   LHFCALC =     F    Hartree Fock is set to
   LHFONE  =     F    Hartree Fock one center treatment
   AEXX    =    0.0000 exact exchange contribution

 Linear response parameters
   LEPSILON=     F    determine dielectric tensor
   LRPA    =     F    only Hartree local field effects (RPA)
   LNABLA  =     F    use nabla operator in PAW spheres
   LVEL    =     F    velocity operator in full k-point grid
   LINTERFAST=   F  fast interpolation
   KINTER  =     0    interpolate to denser k-point grid
   CSHIFT  =0.1000    complex shift for real part using Kramers Kronig
   OMEGAMAX=  -1.0    maximum frequency
   DEG_THRESHOLD= 0.2000000E-02 threshold for treating states as degnerate
   RTIME   =   -0.100 relaxation time in fs
  (WPLASMAI=    0.000 imaginary part of plasma frequency in eV, 0.658/RTIME)
   DFIELD  = 0.0000000 0.0000000 0.0000000 field for delta impulse in time
 
 Orbital magnetization related:
   ORBITALMAG=     F  switch on orbital magnetization
   LCHIMAG   =     F  perturbation theory with respect to B field
   DQ        =  0.001000  dq finite difference perturbation B field
   LLRAUG    =     F  two centre corrections for induced B field



--------------------------------------------------------------------------------------------------------


 Static calculation
 charge density and potential will be updated during run
 non-spin polarized calculation
 RMM-DIIS sequential band-by-band and
  variant of blocked Davidson during initial phase
 perform sub-space diagonalisation
    before iterative eigenvector-optimisation
 modified Broyden-mixing scheme, WC =      100.0
 initial mixing is a Kerker type mixing with AMIX =  0.4000 and BMIX =      1.0000
 Hartree-type preconditioning will be used
 using additional bands           10
 reciprocal scheme for non local part
 use partial core corrections
 calculate Harris-corrections to forces 
   (improved forces if not selfconsistent)
 use gradient corrections 
 use of overlap-Matrix (Vanderbilt PP)
 Gauss-broadening in eV      SIGMA  =   0.01


--------------------------------------------------------------------------------------------------------


  energy-cutoff  :      520.00
  volume of cell :      118.77
      direct lattice vectors                 reciprocal lattice vectors
     2.688697425  0.000009566  0.000002704     0.371927310 -0.000001222  0.000000088
     0.000015837  4.820718547  0.000648111    -0.000000738  0.207437960 -0.000032051
    -0.000002157  0.001415851  9.163570660    -0.000000110 -0.000014671  0.109127769

  length of vectors
     2.688697425  4.820718590  9.163570769     0.371927310  0.207437962  0.109127770


 
 old parameters found on file WAVECAR:
  energy-cutoff  :      520.00
  volume of cell :      126.04
      direct lattice vectors                 reciprocal lattice vectors
     2.916331000  0.000000000  0.000000000     0.342896605  0.000000075 -0.000000073
    -0.000001000  4.580966000  0.000145000     0.000000000  0.218294570 -0.000006941
     0.000002000  0.000300000  9.434393000     0.000000000 -0.000003355  0.105995161

  length of vectors

 
 k-points in units of 2pi/SCALE and weight: read from INCAR                         
   0.00000000  0.00000000  0.00000000       0.004
   0.03381157 -0.00000011  0.00000001       0.008
   0.06762315 -0.00000022  0.00000002       0.008
   0.10143472 -0.00000033  0.00000002       0.008
   0.13524629 -0.00000044  0.00000003       0.008
   0.16905787 -0.00000056  0.00000004       0.008
  -0.00000012  0.03457299 -0.00000534       0.008
   0.03381145  0.03457288 -0.00000533       0.008
   0.06762302  0.03457277 -0.00000533       0.008
   0.10143460  0.03457266 -0.00000532       0.008
   0.13524617  0.03457255 -0.00000531       0.008
   0.16905775  0.03457244 -0.00000530       0.008
  -0.16905799  0.03457355 -0.00000538       0.008
  -0.13524642  0.03457344 -0.00000537       0.008
  -0.10143484  0.03457333 -0.00000537       0.008
  -0.06762327  0.03457322 -0.00000536       0.008
  -0.03381170  0.03457310 -0.00000535       0.008
  -0.00000025  0.06914599 -0.00001068       0.008
   0.03381133  0.06914588 -0.00001068       0.008
   0.06762290  0.06914576 -0.00001067       0.008
   0.10143447  0.06914565 -0.00001066       0.008
   0.13524605  0.06914554 -0.00001065       0.008
   0.16905762  0.06914543 -0.00001064       0.008
  -0.16905811  0.06914654 -0.00001072       0.008
  -0.13524654  0.06914643 -0.00001072       0.008
  -0.10143497  0.06914632 -0.00001071       0.008
  -0.06762339  0.06914621 -0.00001070       0.008
  -0.03381182  0.06914610 -0.00001069       0.008
  -0.00000037  0.10371898 -0.00001603       0.004
   0.03381120  0.10371887 -0.00001602       0.008
   0.06762278  0.10371876 -0.00001601       0.008
   0.10143435  0.10371865 -0.00001600       0.008
   0.13524593  0.10371854 -0.00001599       0.008
   0.16905750  0.10371842 -0.00001599       0.008
  -0.00000003 -0.00000367  0.02728194       0.008
   0.03381155 -0.00000378  0.02728195       0.008
   0.06762312 -0.00000389  0.02728196       0.008
   0.10143469 -0.00000400  0.02728197       0.008
   0.13524627 -0.00000411  0.02728197       0.008
   0.16905784 -0.00000422  0.02728198       0.008
  -0.16905790 -0.00000311  0.02728190       0.008
  -0.13524632 -0.00000322  0.02728191       0.008
  -0.10143475 -0.00000333  0.02728192       0.008
  -0.06762317 -0.00000345  0.02728193       0.008
  -0.03381160 -0.00000356  0.02728193       0.008
  -0.00000015  0.03456933  0.02727660       0.008
   0.03381142  0.03456921  0.02727661       0.008
   0.06762300  0.03456910  0.02727662       0.008
   0.10143457  0.03456899  0.02727662       0.008
   0.13524614  0.03456888  0.02727663       0.008
   0.16905772  0.03456877  0.02727664       0.008
  -0.16905802  0.03456988  0.02727656       0.008
  -0.13524644  0.03456977  0.02727657       0.008
  -0.10143487  0.03456966  0.02727658       0.008
  -0.06762330  0.03456955  0.02727658       0.008
  -0.03381172  0.03456944  0.02727659       0.008
  -0.00000027  0.06914232  0.02727126       0.008
   0.03381130  0.06914221  0.02727127       0.008
   0.06762287  0.06914210  0.02727127       0.008
   0.10143445  0.06914199  0.02727128       0.008
   0.13524602  0.06914187  0.02727129       0.008
   0.16905759  0.06914176  0.02727130       0.008
  -0.16905814  0.06914287  0.02727122       0.008
  -0.13524657  0.06914276  0.02727123       0.008
  -0.10143499  0.06914265  0.02727123       0.008
  -0.06762342  0.06914254  0.02727124       0.008
  -0.03381185  0.06914243  0.02727125       0.008
  -0.00000040  0.10371531  0.02726592       0.008
   0.03381118  0.10371520  0.02726592       0.008
   0.06762275  0.10371509  0.02726593       0.008
   0.10143432  0.10371498  0.02726594       0.008
   0.13524590  0.10371487  0.02726595       0.008
   0.16905747  0.10371476  0.02726596       0.008
  -0.16905826  0.10371587  0.02726588       0.008
  -0.13524669  0.10371576  0.02726588       0.008
  -0.10143512  0.10371565  0.02726589       0.008
  -0.06762354  0.10371553  0.02726590       0.008
  -0.03381197  0.10371542  0.02726591       0.008
   0.00000022 -0.06914965  0.02729263       0.008
   0.03381179 -0.06914977  0.02729263       0.008
   0.06762337 -0.06914988  0.02729264       0.008
   0.10143494 -0.06914999  0.02729265       0.008
   0.13524651 -0.06915010  0.02729266       0.008
   0.16905809 -0.06915021  0.02729267       0.008
  -0.16905765 -0.06914910  0.02729259       0.008
  -0.13524608 -0.06914921  0.02729259       0.008
  -0.10143450 -0.06914932  0.02729260       0.008
  -0.06762293 -0.06914943  0.02729261       0.008
  -0.03381136 -0.06914954  0.02729262       0.008
   0.00000010 -0.03457666  0.02728728       0.008
   0.03381167 -0.03457677  0.02728729       0.008
   0.06762324 -0.03457688  0.02728730       0.008
   0.10143482 -0.03457699  0.02728731       0.008
   0.13524639 -0.03457711  0.02728732       0.008
   0.16905796 -0.03457722  0.02728732       0.008
  -0.16905777 -0.03457611  0.02728724       0.008
  -0.13524620 -0.03457622  0.02728725       0.008
  -0.10143463 -0.03457633  0.02728726       0.008
  -0.06762305 -0.03457644  0.02728727       0.008
  -0.03381148 -0.03457655  0.02728728       0.008
  -0.00000005 -0.00000734  0.05456388       0.004
   0.03381152 -0.00000745  0.05456389       0.008
   0.06762309 -0.00000756  0.05456390       0.008
   0.10143467 -0.00000767  0.05456391       0.008
   0.13524624 -0.00000778  0.05456392       0.008
   0.16905781 -0.00000789  0.05456392       0.008
  -0.00000018  0.03456566  0.05455854       0.008
   0.03381140  0.03456555  0.05455855       0.008
   0.06762297  0.03456544  0.05455856       0.008
   0.10143454  0.03456532  0.05455857       0.008
   0.13524612  0.03456521  0.05455857       0.008
   0.16905769  0.03456510  0.05455858       0.008
  -0.16905805  0.03456621  0.05455850       0.008
  -0.13524647  0.03456610  0.05455851       0.008
  -0.10143490  0.03456599  0.05455852       0.008
  -0.06762333  0.03456588  0.05455853       0.008
  -0.03381175  0.03456577  0.05455853       0.008
  -0.00000030  0.06913865  0.05455320       0.008
   0.03381127  0.06913854  0.05455321       0.008
   0.06762285  0.06913843  0.05455322       0.008
   0.10143442  0.06913832  0.05455322       0.008
   0.13524599  0.06913821  0.05455323       0.008
   0.16905757  0.06913810  0.05455324       0.008
  -0.16905817  0.06913921  0.05455316       0.008
  -0.13524660  0.06913910  0.05455317       0.008
  -0.10143502  0.06913898  0.05455318       0.008
  -0.06762345  0.06913887  0.05455318       0.008
  -0.03381187  0.06913876  0.05455319       0.008
  -0.00000042  0.10371164  0.05454786       0.004
   0.03381115  0.10371153  0.05454787       0.008
   0.06762272  0.10371142  0.05454787       0.008
   0.10143430  0.10371131  0.05454788       0.008
   0.13524587  0.10371120  0.05454789       0.008
   0.16905744  0.10371109  0.05454790       0.008
 
 k-points in reciprocal lattice and weights: read from INCAR                         
   0.00000000  0.00000000  0.00000000       0.004
   0.09090909 -0.00000000  0.00000000       0.008
   0.18181818 -0.00000000  0.00000000       0.008
   0.27272727 -0.00000000 -0.00000000       0.008
   0.36363636 -0.00000000  0.00000000       0.008
   0.45454545 -0.00000000  0.00000000       0.008
   0.00000000  0.16666667 -0.00000000       0.008
   0.09090909  0.16666667  0.00000000       0.008
   0.18181818  0.16666667 -0.00000000       0.008
   0.27272727  0.16666667  0.00000000       0.008
   0.36363636  0.16666667 -0.00000000       0.008
   0.45454545  0.16666667 -0.00000000       0.008
  -0.45454545  0.16666667  0.00000000       0.008
  -0.36363636  0.16666667 -0.00000000       0.008
  -0.27272727  0.16666667 -0.00000000       0.008
  -0.18181818  0.16666667  0.00000000       0.008
  -0.09090909  0.16666667 -0.00000000       0.008
   0.00000000  0.33333333 -0.00000000       0.008
   0.09090909  0.33333333 -0.00000000       0.008
   0.18181818  0.33333333  0.00000000       0.008
   0.27272727  0.33333333 -0.00000000       0.008
   0.36363636  0.33333333 -0.00000000       0.008
   0.45454545  0.33333333 -0.00000000       0.008
  -0.45454545  0.33333333  0.00000000       0.008
  -0.36363636  0.33333333  0.00000000       0.008
  -0.27272727  0.33333333 -0.00000000       0.008
  -0.18181818  0.33333333 -0.00000000       0.008
  -0.09090909  0.33333333 -0.00000000       0.008
  -0.00000000  0.50000000  0.00000000       0.004
   0.09090909  0.50000000  0.00000000       0.008
   0.18181818  0.50000000 -0.00000000       0.008
   0.27272727  0.50000000  0.00000000       0.008
   0.36363636  0.50000000  0.00000000       0.008
   0.45454545  0.50000000 -0.00000000       0.008
   0.00000000 -0.00000000  0.25000000       0.008
   0.09090909  0.00000000  0.25000000       0.008
   0.18181818  0.00000000  0.25000000       0.008
   0.27272727  0.00000000  0.25000000       0.008
   0.36363636 -0.00000000  0.25000000       0.008
   0.45454545  0.00000000  0.25000000       0.008
  -0.45454545 -0.00000000  0.25000000       0.008
  -0.36363636 -0.00000000  0.25000000       0.008
  -0.27272727 -0.00000000  0.25000000       0.008
  -0.18181818  0.00000000  0.25000000       0.008
  -0.09090909 -0.00000000  0.25000000       0.008
   0.00000000  0.16666667  0.25000000       0.008
   0.09090909  0.16666667  0.25000000       0.008
   0.18181818  0.16666667  0.25000000       0.008
   0.27272727  0.16666667  0.25000000       0.008
   0.36363636  0.16666667  0.25000000       0.008
   0.45454545  0.16666667  0.25000000       0.008
  -0.45454545  0.16666667  0.25000000       0.008
  -0.36363636  0.16666667  0.25000000       0.008
  -0.27272727  0.16666667  0.25000000       0.008
  -0.18181818  0.16666667  0.25000000       0.008
  -0.09090909  0.16666667  0.25000000       0.008
   0.00000000  0.33333333  0.25000000       0.008
   0.09090909  0.33333333  0.25000000       0.008
   0.18181818  0.33333333  0.25000000       0.008
   0.27272727  0.33333333  0.25000000       0.008
   0.36363636  0.33333333  0.25000000       0.008
   0.45454545  0.33333333  0.25000000       0.008
  -0.45454545  0.33333333  0.25000000       0.008
  -0.36363636  0.33333333  0.25000000       0.008
  -0.27272727  0.33333333  0.25000000       0.008
  -0.18181818  0.33333333  0.25000000       0.008
  -0.09090909  0.33333333  0.25000000       0.008
  -0.00000000  0.50000000  0.25000000       0.008
   0.09090909  0.50000000  0.25000000       0.008
   0.18181818  0.50000000  0.25000000       0.008
   0.27272727  0.50000000  0.25000000       0.008
   0.36363636  0.50000000  0.25000000       0.008
   0.45454545  0.50000000  0.25000000       0.008
  -0.45454545  0.50000000  0.25000000       0.008
  -0.36363636  0.50000000  0.25000000       0.008
  -0.27272727  0.50000000  0.25000000       0.008
  -0.18181818  0.50000000  0.25000000       0.008
  -0.09090909  0.50000000  0.25000000       0.008
   0.00000000 -0.33333333  0.25000000       0.008
   0.09090909 -0.33333333  0.25000000       0.008
   0.18181818 -0.33333333  0.25000000       0.008
   0.27272727 -0.33333333  0.25000000       0.008
   0.36363636 -0.33333333  0.25000000       0.008
   0.45454545 -0.33333333  0.25000000       0.008
  -0.45454545 -0.33333333  0.25000000       0.008
  -0.36363636 -0.33333333  0.25000000       0.008
  -0.27272727 -0.33333333  0.25000000       0.008
  -0.18181818 -0.33333333  0.25000000       0.008
  -0.09090909 -0.33333333  0.25000000       0.008
   0.00000000 -0.16666667  0.25000000       0.008
   0.09090909 -0.16666667  0.25000000       0.008
   0.18181818 -0.16666667  0.25000000       0.008
   0.27272727 -0.16666667  0.25000000       0.008
   0.36363636 -0.16666667  0.25000000       0.008
   0.45454545 -0.16666667  0.25000000       0.008
  -0.45454545 -0.16666667  0.25000000       0.008
  -0.36363636 -0.16666667  0.25000000       0.008
  -0.27272727 -0.16666667  0.25000000       0.008
  -0.18181818 -0.16666667  0.25000000       0.008
  -0.09090909 -0.16666667  0.25000000       0.008
   0.00000000 -0.00000000  0.50000000       0.004
   0.09090909 -0.00000000  0.50000000       0.008
   0.18181818  0.00000000  0.50000000       0.008
   0.27272727 -0.00000000  0.50000000       0.008
   0.36363636  0.00000000  0.50000000       0.008
   0.45454545 -0.00000000  0.50000000       0.008
  -0.00000000  0.16666667  0.50000000       0.008
   0.09090909  0.16666667  0.50000000       0.008
   0.18181818  0.16666667  0.50000000       0.008
   0.27272727  0.16666667  0.50000000       0.008
   0.36363636  0.16666667  0.50000000       0.008
   0.45454545  0.16666667  0.50000000       0.008
  -0.45454545  0.16666667  0.50000000       0.008
  -0.36363636  0.16666667  0.50000000       0.008
  -0.27272727  0.16666667  0.50000000       0.008
  -0.18181818  0.16666667  0.50000000       0.008
  -0.09090909  0.16666667  0.50000000       0.008
   0.00000000  0.33333333  0.50000000       0.008
   0.09090909  0.33333333  0.50000000       0.008
   0.18181818  0.33333333  0.50000000       0.008
   0.27272727  0.33333333  0.50000000       0.008
   0.36363636  0.33333333  0.50000000       0.008
   0.45454545  0.33333333  0.50000000       0.008
  -0.45454545  0.33333333  0.50000000       0.008
  -0.36363636  0.33333333  0.50000000       0.008
  -0.27272727  0.33333333  0.50000000       0.008
  -0.18181818  0.33333333  0.50000000       0.008
  -0.09090909  0.33333333  0.50000000       0.008
  -0.00000000  0.50000000  0.50000000       0.004
   0.09090909  0.50000000  0.50000000       0.008
   0.18181818  0.50000000  0.50000000       0.008
   0.27272727  0.50000000  0.50000000       0.008
   0.36363636  0.50000000  0.50000000       0.008
   0.45454545  0.50000000  0.50000000       0.008
 
 position of ions in fractional coordinates (direct lattice) 
   0.25001214  0.05058768  0.85788433
   0.75000301  0.94946367  0.14208785
   0.74999694  0.55064186  0.64205703
   0.24998612  0.44928551  0.35792477
   0.25000058  0.70208253  0.52175077
   0.75000967  0.20196863  0.97815658
   0.24999658  0.79795356  0.02184509
   0.74998868  0.29792779  0.47827449
   0.24997290  0.15980014  0.23336640
   0.25003248  0.34022316  0.73334707
   0.74997299  0.65983019  0.26667731
   0.75002789  0.84023629  0.76662929
 
 position of ions in cartesian coordinates  (Angst):
   0.67220596  0.24508600  7.86131715
   2.01654589  4.57730548  1.30264942
   2.01652217  2.65540564  5.88389385
   0.67214339  2.16638813  3.28016078
   0.67218592  3.38528339  4.78155575
   2.01655016  0.97502604  8.96353989
   0.67217776  3.84674284  0.20069689
   2.01649632  1.43691036  4.38289721
   0.67210352  0.77068430  2.13857378
   0.67226550  1.64116080  6.72029892
   2.01646032  3.18124037  2.44414608
   2.01660971  4.05163528  7.02560830
 


--------------------------------------------------------------------------------------------------------


 k-point  1 :   0.0000 0.0000 0.0000  plane waves:    3171
 k-point  2 :   0.0909-0.0000 0.0000  plane waves:    3178
 k-point  3 :   0.1818-0.0000 0.0000  plane waves:    3178
 k-point  4 :   0.2727-0.0000-0.0000  plane waves:    3186
 k-point  5 :   0.3636-0.0000 0.0000  plane waves:    3208
 k-point  6 :   0.4545-0.0000 0.0000  plane waves:    3208
 k-point  7 :   0.0000 0.1667-0.0000  plane waves:    3164
 k-point  8 :   0.0909 0.1667 0.0000  plane waves:    3172
 k-point  9 :   0.1818 0.1667-0.0000  plane waves:    3184
 k-point 10 :   0.2727 0.1667 0.0000  plane waves:    3196
 k-point 11 :   0.3636 0.1667-0.0000  plane waves:    3218
 k-point 12 :   0.4545 0.1667-0.0000  plane waves:    3203
 k-point 13 :  -0.4545 0.1667 0.0000  plane waves:    3203
 k-point 14 :  -0.3636 0.1667-0.0000  plane waves:    3218
 k-point 15 :  -0.2727 0.1667-0.0000  plane waves:    3196
 k-point 16 :  -0.1818 0.1667 0.0000  plane waves:    3184
 k-point 17 :  -0.0909 0.1667-0.0000  plane waves:    3172
 k-point 18 :   0.0000 0.3333-0.0000  plane waves:    3174
 k-point 19 :   0.0909 0.3333-0.0000  plane waves:    3187
 k-point 20 :   0.1818 0.3333 0.0000  plane waves:    3199
 k-point 21 :   0.2727 0.3333-0.0000  plane waves:    3208
 k-point 22 :   0.3636 0.3333-0.0000  plane waves:    3202
 k-point 23 :   0.4545 0.3333-0.0000  plane waves:    3209
 k-point 24 :  -0.4545 0.3333 0.0000  plane waves:    3209
 k-point 25 :  -0.3636 0.3333 0.0000  plane waves:    3202
 k-point 26 :  -0.2727 0.3333-0.0000  plane waves:    3208
 k-point 27 :  -0.1818 0.3333-0.0000  plane waves:    3199
 k-point 28 :  -0.0909 0.3333-0.0000  plane waves:    3187
 k-point 29 :  -0.0000 0.5000 0.0000  plane waves:    3174
 k-point 30 :   0.0909 0.5000 0.0000  plane waves:    3200
 k-point 31 :   0.1818 0.5000-0.0000  plane waves:    3196
 k-point 32 :   0.2727 0.5000 0.0000  plane waves:    3206
 k-point 33 :   0.3636 0.5000 0.0000  plane waves:    3202
 k-point 34 :   0.4545 0.5000-0.0000  plane waves:    3218
 k-point 35 :   0.0000-0.0000 0.2500  plane waves:    3164
 k-point 36 :   0.0909 0.0000 0.2500  plane waves:    3179
 k-point 37 :   0.1818 0.0000 0.2500  plane waves:    3180
 k-point 38 :   0.2727 0.0000 0.2500  plane waves:    3180
 k-point 39 :   0.3636-0.0000 0.2500  plane waves:    3212
 k-point 40 :   0.4545 0.0000 0.2500  plane waves:    3201
 k-point 41 :  -0.4545-0.0000 0.2500  plane waves:    3201
 k-point 42 :  -0.3636-0.0000 0.2500  plane waves:    3212
 k-point 43 :  -0.2727-0.0000 0.2500  plane waves:    3180
 k-point 44 :  -0.1818 0.0000 0.2500  plane waves:    3180
 k-point 45 :  -0.0909-0.0000 0.2500  plane waves:    3179
 k-point 46 :   0.0000 0.1667 0.2500  plane waves:    3156
 k-point 47 :   0.0909 0.1667 0.2500  plane waves:    3181
 k-point 48 :   0.1818 0.1667 0.2500  plane waves:    3192
 k-point 49 :   0.2727 0.1667 0.2500  plane waves:    3201
 k-point 50 :   0.3636 0.1667 0.2500  plane waves:    3214
 k-point 51 :   0.4545 0.1667 0.2500  plane waves:    3215
 k-point 52 :  -0.4545 0.1667 0.2500  plane waves:    3215
 k-point 53 :  -0.3636 0.1667 0.2500  plane waves:    3214
 k-point 54 :  -0.2727 0.1667 0.2500  plane waves:    3201
 k-point 55 :  -0.1818 0.1667 0.2500  plane waves:    3192
 k-point 56 :  -0.0909 0.1667 0.2500  plane waves:    3181
 k-point 57 :   0.0000 0.3333 0.2500  plane waves:    3171
 k-point 58 :   0.0909 0.3333 0.2500  plane waves:    3181
 k-point 59 :   0.1818 0.3333 0.2500  plane waves:    3208
 k-point 60 :   0.2727 0.3333 0.2500  plane waves:    3214
 k-point 61 :   0.3636 0.3333 0.2500  plane waves:    3213
 k-point 62 :   0.4545 0.3333 0.2500  plane waves:    3214
 k-point 63 :  -0.4545 0.3333 0.2500  plane waves:    3214
 k-point 64 :  -0.3636 0.3333 0.2500  plane waves:    3213
 k-point 65 :  -0.2727 0.3333 0.2500  plane waves:    3214
 k-point 66 :  -0.1818 0.3333 0.2500  plane waves:    3208
 k-point 67 :  -0.0909 0.3333 0.2500  plane waves:    3181
 k-point 68 :  -0.0000 0.5000 0.2500  plane waves:    3164
 k-point 69 :   0.0909 0.5000 0.2500  plane waves:    3192
 k-point 70 :   0.1818 0.5000 0.2500  plane waves:    3204
 k-point 71 :   0.2727 0.5000 0.2500  plane waves:    3213
 k-point 72 :   0.3636 0.5000 0.2500  plane waves:    3209
 k-point 73 :   0.4545 0.5000 0.2500  plane waves:    3218
 k-point 74 :  -0.4545 0.5000 0.2500  plane waves:    3218
 k-point 75 :  -0.3636 0.5000 0.2500  plane waves:    3209
 k-point 76 :  -0.2727 0.5000 0.2500  plane waves:    3213
 k-point 77 :  -0.1818 0.5000 0.2500  plane waves:    3204
 k-point 78 :  -0.0909 0.5000 0.2500  plane waves:    3192
 k-point 79 :   0.0000-0.3333 0.2500  plane waves:    3171
 k-point 80 :   0.0909-0.3333 0.2500  plane waves:    3183
 k-point 81 :   0.1818-0.3333 0.2500  plane waves:    3210
 k-point 82 :   0.2727-0.3333 0.2500  plane waves:    3215
 k-point 83 :   0.3636-0.3333 0.2500  plane waves:    3213
 k-point 84 :   0.4545-0.3333 0.2500  plane waves:    3215
 k-point 85 :  -0.4545-0.3333 0.2500  plane waves:    3215
 k-point 86 :  -0.3636-0.3333 0.2500  plane waves:    3213
 k-point 87 :  -0.2727-0.3333 0.2500  plane waves:    3215
 k-point 88 :  -0.1818-0.3333 0.2500  plane waves:    3210
 k-point 89 :  -0.0909-0.3333 0.2500  plane waves:    3183
 k-point 90 :   0.0000-0.1667 0.2500  plane waves:    3156
 k-point 91 :   0.0909-0.1667 0.2500  plane waves:    3183
 k-point 92 :   0.1818-0.1667 0.2500  plane waves:    3193
 k-point 93 :   0.2727-0.1667 0.2500  plane waves:    3201
 k-point 94 :   0.3636-0.1667 0.2500  plane waves:    3215
 k-point 95 :   0.4545-0.1667 0.2500  plane waves:    3216
 k-point 96 :  -0.4545-0.1667 0.2500  plane waves:    3216
 k-point 97 :  -0.3636-0.1667 0.2500  plane waves:    3215
 k-point 98 :  -0.2727-0.1667 0.2500  plane waves:    3201
 k-point 99 :  -0.1818-0.1667 0.2500  plane waves:    3193
 k-point ** :  -0.0909-0.1667 0.2500  plane waves:    3183
 k-point ** :   0.0000-0.0000 0.5000  plane waves:    3170
 k-point ** :   0.0909-0.0000 0.5000  plane waves:    3190
 k-point ** :   0.1818 0.0000 0.5000  plane waves:    3196
 k-point ** :   0.2727-0.0000 0.5000  plane waves:    3188
 k-point ** :   0.3636 0.0000 0.5000  plane waves:    3200
 k-point ** :   0.4545-0.0000 0.5000  plane waves:    3216
 k-point ** :  -0.0000 0.1667 0.5000  plane waves:    3168
 k-point ** :   0.0909 0.1667 0.5000  plane waves:    3181
 k-point ** :   0.1818 0.1667 0.5000  plane waves:    3192
 k-point ** :   0.2727 0.1667 0.5000  plane waves:    3204
 k-point ** :   0.3636 0.1667 0.5000  plane waves:    3206
 k-point ** :   0.4545 0.1667 0.5000  plane waves:    3216
 k-point ** :  -0.4545 0.1667 0.5000  plane waves:    3216
 k-point ** :  -0.3636 0.1667 0.5000  plane waves:    3206
 k-point ** :  -0.2727 0.1667 0.5000  plane waves:    3204
 k-point ** :  -0.1818 0.1667 0.5000  plane waves:    3192
 k-point ** :  -0.0909 0.1667 0.5000  plane waves:    3181
 k-point ** :   0.0000 0.3333 0.5000  plane waves:    3164
 k-point ** :   0.0909 0.3333 0.5000  plane waves:    3178
 k-point ** :   0.1818 0.3333 0.5000  plane waves:    3205
 k-point ** :   0.2727 0.3333 0.5000  plane waves:    3206
 k-point ** :   0.3636 0.3333 0.5000  plane waves:    3224
 k-point ** :   0.4545 0.3333 0.5000  plane waves:    3220
 k-point ** :  -0.4545 0.3333 0.5000  plane waves:    3220
 k-point ** :  -0.3636 0.3333 0.5000  plane waves:    3224
 k-point ** :  -0.2727 0.3333 0.5000  plane waves:    3206
 k-point ** :  -0.1818 0.3333 0.5000  plane waves:    3206
 k-point ** :  -0.0909 0.3333 0.5000  plane waves:    3178
 k-point ** :  -0.0000 0.5000 0.5000  plane waves:    3176
 k-point ** :   0.0909 0.5000 0.5000  plane waves:    3176
 k-point ** :   0.1818 0.5000 0.5000  plane waves:    3196
 k-point ** :   0.2727 0.5000 0.5000  plane waves:    3208
 k-point ** :   0.3636 0.5000 0.5000  plane waves:    3224
 k-point ** :   0.4545 0.5000 0.5000  plane waves:    3216

 maximum and minimum number of plane-waves per node :       821      764

 maximum number of plane-waves:      3224
 maximum index in each direction: 
   IXMAX=    5   IYMAX=    9   IZMAX=   17
   IXMIN=   -5   IYMIN=   -9   IZMIN=  -17


 parallel 3D FFT for wavefunctions:
    minimum data exchange during FFTs selected (reduces bandwidth)
 parallel 3D FFT for charge:
    minimum data exchange during FFTs selected (reduces bandwidth)


 total amount of memory used by VASP MPI-rank0    92396. kBytes
=======================================================================

   base      :      30000. kBytes
   nonl-proj :      31492. kBytes
   fftplans  :       1370. kBytes
   grid      :       2217. kBytes
   one-center:         46. kBytes
   wavefun   :      27271. kBytes
 
     INWAV:  cpu time    2.0745: real time    2.0796
 Broyden mixing: mesh for mixing (old mesh)
   NGX =  9   NGY = 17   NGZ = 35
  (NGX  = 40   NGY  = 72   NGZ  =140)
  gives a total of   5355 points

 charge density for first step will be calculated from the start-wavefunctions


--------------------------------------------------------------------------------------------------------


 Maximum index for augmentation-charges         1003 (set IRDMAX)


--------------------------------------------------------------------------------------------------------


 initial charge from wavefunction
 First call to EWALD:  gamma=   0.361
 Maximum number of real-space cells 5x 3x 2
 Maximum number of reciprocal cells 2x 3x 5

    FEWALD:  cpu time    0.0016: real time    0.0026


--------------------------------------- Iteration      1(   1)  ---------------------------------------


    POTLOK:  cpu time    0.0234: real time    0.0451
    SETDIJ:  cpu time    0.1540: real time    0.1542
     EDDAV:  cpu time    8.6097: real time   11.6690
       DOS:  cpu time    0.0080: real time    0.0080
    CHARGE:  cpu time    0.3437: real time    0.3445
    MIXING:  cpu time    0.0020: real time    0.0019
    --------------------------------------------
      LOOP:  cpu time    9.1407: real time   12.2228

 eigenvalue-minimisations  : 21276
 total energy-change (2. order) :-0.4960116E+02  (-0.1663169E+03)
 number of electron      99.9999985 magnetization 
 augmentation part       36.5550946 magnetization 

 Broyden mixing:
  rms(total) = 0.39630E+01    rms(broyden)= 0.39628E+01
  rms(prec ) = 0.43885E+01
  weight for this iteration     100.00

 Free energy of the ion-electron system (eV)
  ---------------------------------------------------
  alpha Z        PSCENC =       468.37989816
  Ewald energy   TEWEN  =     -7440.91207067
  -Hartree energ DENC   =     -3665.01809671
  -exchange      EXHF   =         0.00000000
  -V(xc)+E(xc)   XCENC  =       495.81303870
  PAW double counting   =     15034.28397292   -15277.55670619
  entropy T*S    EENTRO =        -0.00040639
  eigenvalues    EBANDS =     -1224.49716965
  atomic energy  EATOM  =     11559.90638050
  Solvation  Ediel_sol  =         0.00000000
  ---------------------------------------------------
  free energy    TOTEN  =       -49.60115931 eV

  energy without entropy =      -49.60075293  energy(sigma->0) =      -49.60095612


--------------------------------------------------------------------------------------------------------




--------------------------------------- Iteration      1(   2)  ---------------------------------------


    POTLOK:  cpu time    0.0239: real time    0.0249
    SETDIJ:  cpu time    0.1548: real time    0.1549
    EDDIAG:  cpu time    1.4034: real time    1.4071
  RMM-DIIS:  cpu time    3.3992: real time    3.4117
    ORTHCH:  cpu time    0.2274: real time    0.2281
       DOS:  cpu time    0.0069: real time    0.0069
    CHARGE:  cpu time    0.3011: real time    0.3017
    MIXING:  cpu time    0.0010: real time    0.0010
    --------------------------------------------
      LOOP:  cpu time    5.5177: real time    5.5364

 eigenvalue-minimisations  : 18272
 total energy-change (2. order) :-0.6178612E+02  (-0.5937727E+02)
 number of electron      99.9999983 magnetization 
 augmentation part       31.5726275 magnetization 

 Broyden mixing:
  rms(total) = 0.32415E+01    rms(broyden)= 0.32411E+01
  rms(prec ) = 0.41426E+01
  weight for this iteration     100.00

 eigenvalues of (default mixing * dielectric matrix)
  average eigenvalue GAMMA=   0.6106
  0.6106

 Free energy of the ion-electron system (eV)
  ---------------------------------------------------
  alpha Z        PSCENC =       468.37989816
  Ewald energy   TEWEN  =     -7440.91207067
  -Hartree energ DENC   =     -3810.25838571
  -exchange      EXHF   =         0.00000000
  -V(xc)+E(xc)   XCENC  =       499.77332290
  PAW double counting   =     14566.88983821   -14823.48455864
  entropy T*S    EENTRO =        -0.00049097
  eigenvalues    EBANDS =     -1131.68121111
  atomic energy  EATOM  =     11559.90638050
  Solvation  Ediel_sol  =         0.00000000
  ---------------------------------------------------
  free energy    TOTEN  =      -111.38727733 eV

  energy without entropy =     -111.38678636  energy(sigma->0) =     -111.38703185


--------------------------------------------------------------------------------------------------------




--------------------------------------- Iteration      1(   3)  ---------------------------------------


    POTLOK:  cpu time    0.0195: real time    0.0216
    SETDIJ:  cpu time    0.1532: real time    0.1534
    EDDIAG:  cpu time    2.2355: real time    2.2426
  RMM-DIIS:  cpu time    5.3145: real time    5.3288
    ORTHCH:  cpu time    0.3946: real time    0.3955
       DOS:  cpu time    0.0114: real time    0.0114
    CHARGE:  cpu time    0.5252: real time    0.5264
    MIXING:  cpu time    0.0011: real time    0.0011
    --------------------------------------------
      LOOP:  cpu time    8.6549: real time    8.6806

 eigenvalue-minimisations  : 19565
 total energy-change (2. order) : 0.1762784E+02  (-0.4824706E+01)
 number of electron      99.9999989 magnetization 
 augmentation part       33.1099893 magnetization 

 Broyden mixing:
  rms(total) = 0.23154E+01    rms(broyden)= 0.23149E+01
  rms(prec ) = 0.29028E+01
  weight for this iteration     100.00

 eigenvalues of (default mixing * dielectric matrix)
  average eigenvalue GAMMA=   0.6411
  0.8385  0.4437

 Free energy of the ion-electron system (eV)
  ---------------------------------------------------
  alpha Z        PSCENC =       468.37989816
  Ewald energy   TEWEN  =     -7440.91207067
  -Hartree energ DENC   =     -3722.29643707
  -exchange      EXHF   =         0.00000000
  -V(xc)+E(xc)   XCENC  =       498.01886079
  PAW double counting   =     13990.31025760   -14237.30131313
  entropy T*S    EENTRO =        -0.00046629
  eigenvalues    EBANDS =     -1209.86454350
  atomic energy  EATOM  =     11559.90638050
  Solvation  Ediel_sol  =         0.00000000
  ---------------------------------------------------
  free energy    TOTEN  =       -93.75943362 eV

  energy without entropy =      -93.75896734  energy(sigma->0) =      -93.75920048


--------------------------------------------------------------------------------------------------------




--------------------------------------- Iteration      1(   4)  ---------------------------------------


    POTLOK:  cpu time    0.0231: real time    0.0237
    SETDIJ:  cpu time    0.2548: real time    0.2552
    EDDIAG:  cpu time    2.3409: real time    2.3468
  RMM-DIIS:  cpu time    6.3035: real time    6.3206
    ORTHCH:  cpu time    0.3941: real time    0.3952
       DOS:  cpu time    0.0114: real time    0.0115
    CHARGE:  cpu time    0.5616: real time    0.5627
    MIXING:  cpu time    0.0012: real time    0.0012
    --------------------------------------------
      LOOP:  cpu time    9.8906: real time    9.9167

 eigenvalue-minimisations  : 21287
 total energy-change (2. order) :-0.4308671E+01  (-0.9918814E+00)
 number of electron      99.9999991 magnetization 
 augmentation part       33.6257651 magnetization 

 Broyden mixing:
  rms(total) = 0.31733E+01    rms(broyden)= 0.31720E+01
  rms(prec ) = 0.49560E+01
  weight for this iteration     100.00

 eigenvalues of (default mixing * dielectric matrix)
  average eigenvalue GAMMA=   0.9886
  2.3345  0.5218  0.1093

 Free energy of the ion-electron system (eV)
  ---------------------------------------------------
  alpha Z        PSCENC =       468.37989816
  Ewald energy   TEWEN  =     -7440.91207067
  -Hartree energ DENC   =     -3709.69602900
  -exchange      EXHF   =         0.00000000
  -V(xc)+E(xc)   XCENC  =       497.61913026
  PAW double counting   =     13738.81589267   -13983.46654928
  entropy T*S    EENTRO =        -0.00084230
  eigenvalues    EBANDS =     -1228.71391537
  atomic energy  EATOM  =     11559.90638050
  Solvation  Ediel_sol  =         0.00000000
  ---------------------------------------------------
  free energy    TOTEN  =       -98.06810503 eV

  energy without entropy =      -98.06726273  energy(sigma->0) =      -98.06768388


--------------------------------------------------------------------------------------------------------




--------------------------------------- Iteration      1(   5)  ---------------------------------------


    POTLOK:  cpu time    0.0265: real time    0.0275
    SETDIJ:  cpu time    0.2810: real time    0.2815
    EDDIAG:  cpu time    2.4657: real time    2.4728
  RMM-DIIS:  cpu time    6.0199: real time    6.0327
    ORTHCH:  cpu time    0.3999: real time    0.4009
       DOS:  cpu time    0.0112: real time    0.0112
    CHARGE:  cpu time    0.5470: real time    0.5481
    MIXING:  cpu time    0.0019: real time    0.0019
    --------------------------------------------
      LOOP:  cpu time    9.7531: real time    9.7766

 eigenvalue-minimisations  : 18334
 total energy-change (2. order) :-0.1812251E+01  (-0.2463729E+01)
 number of electron      99.9999986 magnetization 
 augmentation part       36.0053318 magnetization 

 Broyden mixing:
  rms(total) = 0.33451E+01    rms(broyden)= 0.33442E+01
  rms(prec ) = 0.46852E+01
  weight for this iteration     100.00

 eigenvalues of (default mixing * dielectric matrix)
  average eigenvalue GAMMA=   0.8330
  2.4738  0.3755  0.3755  0.1074

 Free energy of the ion-electron system (eV)
  ---------------------------------------------------
  alpha Z        PSCENC =       468.37989816
  Ewald energy   TEWEN  =     -7440.91207067
  -Hartree energ DENC   =     -3656.22162418
  -exchange      EXHF   =         0.00000000
  -V(xc)+E(xc)   XCENC  =       495.85144820
  PAW double counting   =     12477.89738158   -12711.49367452
  entropy T*S    EENTRO =        -0.00023496
  eigenvalues    EBANDS =     -1293.28786037
  atomic energy  EATOM  =     11559.90638050
  Solvation  Ediel_sol  =         0.00000000
  ---------------------------------------------------
  free energy    TOTEN  =       -99.88035626 eV

  energy without entropy =      -99.88012130  energy(sigma->0) =      -99.88023878


--------------------------------------------------------------------------------------------------------




--------------------------------------- Iteration      1(   6)  ---------------------------------------


    POTLOK:  cpu time    0.0239: real time    0.0267
    SETDIJ:  cpu time    0.1537: real time    0.1539
    EDDIAG:  cpu time    2.3453: real time    2.3543
  RMM-DIIS:  cpu time    6.5575: real time    6.5728
    ORTHCH:  cpu time    0.3956: real time    0.3965
       DOS:  cpu time    0.0117: real time    0.0117
    CHARGE:  cpu time    0.5648: real time    0.5664
    MIXING:  cpu time    0.0010: real time    0.0010
    --------------------------------------------
      LOOP:  cpu time   10.0534: real time   10.0833

 eigenvalue-minimisations  : 19995
 total energy-change (2. order) : 0.2100640E+01  (-0.8028276E+00)
 number of electron      99.9999986 magnetization 
 augmentation part       35.0084659 magnetization 

 Broyden mixing:
  rms(total) = 0.31877E+01    rms(broyden)= 0.31861E+01
  rms(prec ) = 0.46105E+01
  weight for this iteration     100.00

 eigenvalues of (default mixing * dielectric matrix)
  average eigenvalue GAMMA=   0.7602
  2.4751  0.5588  0.5588  0.1043  0.1043

 Free energy of the ion-electron system (eV)
  ---------------------------------------------------
  alpha Z        PSCENC =       468.37989816
  Ewald energy   TEWEN  =     -7440.91207067
  -Hartree energ DENC   =     -3671.18682892
  -exchange      EXHF   =         0.00000000
  -V(xc)+E(xc)   XCENC  =       496.14347513
  PAW double counting   =     12408.10306114   -12641.91195908
  entropy T*S    EENTRO =        -0.00066611
  eigenvalues    EBANDS =     -1276.30100614
  atomic energy  EATOM  =     11559.90638050
  Solvation  Ediel_sol  =         0.00000000
  ---------------------------------------------------
  free energy    TOTEN  =       -97.77971599 eV

  energy without entropy =      -97.77904988  energy(sigma->0) =      -97.77938294


--------------------------------------------------------------------------------------------------------




--------------------------------------- Iteration      1(   7)  ---------------------------------------


    POTLOK:  cpu time    0.0232: real time    0.0240
    SETDIJ:  cpu time    0.1491: real time    0.1493
    EDDIAG:  cpu time    2.5776: real time    2.5840
  RMM-DIIS:  cpu time    6.1799: real time    6.1958
    ORTHCH:  cpu time    0.3927: real time    0.3936
       DOS:  cpu time    0.0101: real time    0.0101
    CHARGE:  cpu time    0.5537: real time    0.5547
    MIXING:  cpu time    0.0013: real time    0.0013
    --------------------------------------------
      LOOP:  cpu time    9.8876: real time    9.9128

 eigenvalue-minimisations  : 18722
 total energy-change (2. order) : 0.4870065E+01  (-0.1026878E+01)
 number of electron      99.9999986 magnetization 
 augmentation part       33.6664075 magnetization 

 Broyden mixing:
  rms(total) = 0.92243E+00    rms(broyden)= 0.92025E+00
  rms(prec ) = 0.13296E+01
  weight for this iteration     100.00

 eigenvalues of (default mixing * dielectric matrix)
  average eigenvalue GAMMA=   0.7446
  2.7108  0.5694  0.5694  0.4155  0.1012  0.1012

 Free energy of the ion-electron system (eV)
  ---------------------------------------------------
  alpha Z        PSCENC =       468.37989816
  Ewald energy   TEWEN  =     -7440.91207067
  -Hartree energ DENC   =     -3703.38080409
  -exchange      EXHF   =         0.00000000
  -V(xc)+E(xc)   XCENC  =       496.87394037
  PAW double counting   =     12437.74415184   -12673.54353557
  entropy T*S    EENTRO =        -0.00040034
  eigenvalues    EBANDS =     -1237.97721070
  atomic energy  EATOM  =     11559.90638050
  Solvation  Ediel_sol  =         0.00000000
  ---------------------------------------------------
  free energy    TOTEN  =       -92.90965050 eV

  energy without entropy =      -92.90925016  energy(sigma->0) =      -92.90945033


--------------------------------------------------------------------------------------------------------




--------------------------------------- Iteration      1(   8)  ---------------------------------------


    POTLOK:  cpu time    0.0283: real time    0.0299
    SETDIJ:  cpu time    0.2807: real time    0.2812
    EDDIAG:  cpu time    2.4471: real time    2.4545
  RMM-DIIS:  cpu time    7.4372: real time    7.4549
    ORTHCH:  cpu time    0.3984: real time    0.3992
       DOS:  cpu time    0.0065: real time    0.0065
    CHARGE:  cpu time    0.5443: real time    0.5455
    MIXING:  cpu time    0.0013: real time    0.0013
    --------------------------------------------
      LOOP:  cpu time   11.1438: real time   11.1728

 eigenvalue-minimisations  : 23029
 total energy-change (2. order) :-0.3805145E+00  (-0.1371320E+00)
 number of electron      99.9999987 magnetization 
 augmentation part       33.5550826 magnetization 

 Broyden mixing:
  rms(total) = 0.16312E+01    rms(broyden)= 0.16302E+01
  rms(prec ) = 0.26178E+01
  weight for this iteration     100.00

 eigenvalues of (default mixing * dielectric matrix)
  average eigenvalue GAMMA=   0.6697
  2.7754  0.5561  0.5561  0.5146  0.1014  0.1014  0.0830

 Free energy of the ion-electron system (eV)
  ---------------------------------------------------
  alpha Z        PSCENC =       468.37989816
  Ewald energy   TEWEN  =     -7440.91207067
  -Hartree energ DENC   =     -3704.48779331
  -exchange      EXHF   =         0.00000000
  -V(xc)+E(xc)   XCENC  =       496.85447409
  PAW double counting   =     12302.18584535   -12537.38367151
  entropy T*S    EENTRO =        -0.00074922
  eigenvalues    EBANDS =     -1237.83247837
  atomic energy  EATOM  =     11559.90638050
  Solvation  Ediel_sol  =         0.00000000
  ---------------------------------------------------
  free energy    TOTEN  =       -93.29016498 eV

  energy without entropy =      -93.28941576  energy(sigma->0) =      -93.28979037


--------------------------------------------------------------------------------------------------------




--------------------------------------- Iteration      1(   9)  ---------------------------------------


    POTLOK:  cpu time    0.0253: real time    0.0254
    SETDIJ:  cpu time    0.1477: real time    0.1478
    EDDIAG:  cpu time    2.2929: real time    2.2999
  RMM-DIIS:  cpu time    6.2604: real time    6.2739
    ORTHCH:  cpu time    0.4047: real time    0.4059
       DOS:  cpu time    0.0059: real time    0.0060
    CHARGE:  cpu time    0.5485: real time    0.5493
    MIXING:  cpu time    0.0013: real time    0.0013
    --------------------------------------------
      LOOP:  cpu time    9.6867: real time    9.7096

 eigenvalue-minimisations  : 18935
 total energy-change (2. order) : 0.6772334E+00  (-0.4130736E-01)
 number of electron      99.9999985 magnetization 
 augmentation part       33.5025666 magnetization 

 Broyden mixing:
  rms(total) = 0.42236E+00    rms(broyden)= 0.41986E+00
  rms(prec ) = 0.61232E+00
  weight for this iteration     100.00

 eigenvalues of (default mixing * dielectric matrix)
  average eigenvalue GAMMA=   0.7035
  2.8140  0.7177  0.7177  0.5541  0.5541  0.1014  0.1014  0.0675

 Free energy of the ion-electron system (eV)
  ---------------------------------------------------
  alpha Z        PSCENC =       468.37989816
  Ewald energy   TEWEN  =     -7440.91207067
  -Hartree energ DENC   =     -3705.30561957
  -exchange      EXHF   =         0.00000000
  -V(xc)+E(xc)   XCENC  =       496.87720762
  PAW double counting   =     12258.40001253   -12493.47142495
  entropy T*S    EENTRO =        -0.00041954
  eigenvalues    EBANDS =     -1236.48689571
  atomic energy  EATOM  =     11559.90638050
  Solvation  Ediel_sol  =         0.00000000
  ---------------------------------------------------
  free energy    TOTEN  =       -92.61293162 eV

  energy without entropy =      -92.61251209  energy(sigma->0) =      -92.61272186


--------------------------------------------------------------------------------------------------------




--------------------------------------- Iteration      1(  10)  ---------------------------------------


    POTLOK:  cpu time    0.0252: real time    0.0265
    SETDIJ:  cpu time    0.2630: real time    0.2634
    EDDIAG:  cpu time    2.1922: real time    2.1968
  RMM-DIIS:  cpu time    7.0802: real time    7.0953
    ORTHCH:  cpu time    0.4105: real time    0.4115
       DOS:  cpu time    0.0070: real time    0.0071
    CHARGE:  cpu time    0.5561: real time    0.5571
    MIXING:  cpu time    0.0014: real time    0.0014
    --------------------------------------------
      LOOP:  cpu time   10.5357: real time   10.5590

 eigenvalue-minimisations  : 20606
 total energy-change (2. order) : 0.7251759E-01  (-0.3069165E-01)
 number of electron      99.9999985 magnetization 
 augmentation part       33.7104345 magnetization 

 Broyden mixing:
  rms(total) = 0.22933E+00    rms(broyden)= 0.22921E+00
  rms(prec ) = 0.29779E+00
  weight for this iteration     100.00

 eigenvalues of (default mixing * dielectric matrix)
  average eigenvalue GAMMA=   0.7617
  2.9466  1.0309  1.0309  0.5563  0.5563  0.4646  0.1013  0.1013  0.0674

 Free energy of the ion-electron system (eV)
  ---------------------------------------------------
  alpha Z        PSCENC =       468.37989816
  Ewald energy   TEWEN  =     -7440.91207067
  -Hartree energ DENC   =     -3700.96212882
  -exchange      EXHF   =         0.00000000
  -V(xc)+E(xc)   XCENC  =       496.83988562
  PAW double counting   =     12190.35562696   -12425.08682429
  entropy T*S    EENTRO =        -0.00084899
  eigenvalues    EBANDS =     -1241.06033250
  atomic energy  EATOM  =     11559.90638050
  Solvation  Ediel_sol  =         0.00000000
  ---------------------------------------------------
  free energy    TOTEN  =       -92.54041404 eV

  energy without entropy =      -92.53956504  energy(sigma->0) =      -92.53998954


--------------------------------------------------------------------------------------------------------




--------------------------------------- Iteration      1(  11)  ---------------------------------------


    POTLOK:  cpu time    0.0246: real time    0.0309
    SETDIJ:  cpu time    0.1487: real time    0.1489
    EDDIAG:  cpu time    2.2734: real time    2.2806
  RMM-DIIS:  cpu time    8.1654: real time    8.1800
    ORTHCH:  cpu time    0.3862: real time    0.3875
       DOS:  cpu time    0.0064: real time    0.0064
    CHARGE:  cpu time    0.5322: real time    0.5328
    MIXING:  cpu time    0.0018: real time    0.0018
    --------------------------------------------
      LOOP:  cpu time   11.5385: real time   11.5689

 eigenvalue-minimisations  : 24669
 total energy-change (2. order) : 0.6850525E-02  (-0.4146988E-02)
 number of electron      99.9999986 magnetization 
 augmentation part       33.7187296 magnetization 

 Broyden mixing:
  rms(total) = 0.17498E+00    rms(broyden)= 0.17486E+00
  rms(prec ) = 0.25910E+00
  weight for this iteration     100.00

 eigenvalues of (default mixing * dielectric matrix)
  average eigenvalue GAMMA=   0.8420
  3.1791  1.7789  0.9309  0.5690  0.5690  0.5614  0.5614  0.1013  0.1013  0.0674

 Free energy of the ion-electron system (eV)
  ---------------------------------------------------
  alpha Z        PSCENC =       468.37989816
  Ewald energy   TEWEN  =     -7440.91207067
  -Hartree energ DENC   =     -3701.23966583
  -exchange      EXHF   =         0.00000000
  -V(xc)+E(xc)   XCENC  =       496.86221859
  PAW double counting   =     12143.85641614   -12378.57558632
  entropy T*S    EENTRO =        -0.00071014
  eigenvalues    EBANDS =     -1240.81044393
  atomic energy  EATOM  =     11559.90638050
  Solvation  Ediel_sol  =         0.00000000
  ---------------------------------------------------
  free energy    TOTEN  =       -92.53356351 eV

  energy without entropy =      -92.53285337  energy(sigma->0) =      -92.53320844


--------------------------------------------------------------------------------------------------------




--------------------------------------- Iteration      1(  12)  ---------------------------------------


    POTLOK:  cpu time    0.0254: real time    0.0255
    SETDIJ:  cpu time    0.1534: real time    0.1536
    EDDIAG:  cpu time    2.2023: real time    2.2067
  RMM-DIIS:  cpu time    6.4439: real time    6.4574
    ORTHCH:  cpu time    0.3716: real time    0.3721
       DOS:  cpu time    0.0102: real time    0.0102
    CHARGE:  cpu time    0.5028: real time    0.5035
    MIXING:  cpu time    0.0019: real time    0.0019
    --------------------------------------------
      LOOP:  cpu time    9.7115: real time    9.7308

 eigenvalue-minimisations  : 20265
 total energy-change (2. order) :-0.4855328E-02  (-0.3238796E-02)
 number of electron      99.9999986 magnetization 
 augmentation part       33.6666682 magnetization 

 Broyden mixing:
  rms(total) = 0.19206E+00    rms(broyden)= 0.19184E+00
  rms(prec ) = 0.31525E+00
  weight for this iteration     100.00

 eigenvalues of (default mixing * dielectric matrix)
  average eigenvalue GAMMA=   0.8110
  2.7705  1.7524  1.0234  1.0234  0.5440  0.5440  0.5764  0.4168  0.1013  0.1013
  0.0674

 Free energy of the ion-electron system (eV)
  ---------------------------------------------------
  alpha Z        PSCENC =       468.37989816
  Ewald energy   TEWEN  =     -7440.91207067
  -Hartree energ DENC   =     -3702.57936884
  -exchange      EXHF   =         0.00000000
  -V(xc)+E(xc)   XCENC  =       496.89465471
  PAW double counting   =     12116.57433597   -12351.42741092
  entropy T*S    EENTRO =        -0.00065209
  eigenvalues    EBANDS =     -1239.37418565
  atomic energy  EATOM  =     11559.90638050
  Solvation  Ediel_sol  =         0.00000000
  ---------------------------------------------------
  free energy    TOTEN  =       -92.53841884 eV

  energy without entropy =      -92.53776675  energy(sigma->0) =      -92.53809279


--------------------------------------------------------------------------------------------------------




--------------------------------------- Iteration      1(  13)  ---------------------------------------


    POTLOK:  cpu time    0.0243: real time    0.0244
    SETDIJ:  cpu time    0.1485: real time    0.1486
    EDDIAG:  cpu time    2.2156: real time    2.2213
  RMM-DIIS:  cpu time    6.9239: real time    6.9416
    ORTHCH:  cpu time    0.3767: real time    0.3774
[...]
      6     -44.3599      2.00000
      7     -44.3568      2.00000
      8     -44.3568      2.00000
      9     -44.3141      2.00000
     10     -44.3140      2.00000
     11     -44.2744      2.00000
     12     -44.2743      2.00000
     13     -14.9173      2.00000
     14     -14.9166      2.00000
     15     -14.4579      2.00000
     16     -14.4576      2.00000
     17     -13.8695      2.00000
     18     -13.8686      2.00000
     19     -13.3122      2.00000
     20     -13.3115      2.00000
     21      -2.3251      2.00000
     22      -2.3248      2.00000
     23      -1.9914      2.00000
     24      -1.9911      2.00000
     25      -1.4072      2.00000
     26      -1.4062      2.00000
     27      -1.3329      2.00000
     28      -1.3323      2.00000
     29      -0.1901      2.00000
     30      -0.1893      2.00000
     31      -0.0604      2.00000
     32      -0.0599      2.00000
     33       0.4794      2.00000
     34       0.4796      2.00000
     35       0.4933      2.00000
     36       0.4942      2.00000
     37       1.2720      2.00000
     38       1.2726      2.00000
     39       1.3612      2.00000
     40       1.3624      2.00000
     41       1.5495      2.00000
     42       1.5506      2.00000
     43       2.6607      2.00000
     44       2.6621      2.00000
     45       3.9857      2.00000
     46       3.9862      2.00000
     47       3.9877      2.00000
     48       3.9884      2.00000
     49       4.5730      2.00000
     50       4.5736      2.00000
     51       4.7037      0.00000
     52       4.7051      0.00000
     53       5.0817      0.00000
     54       5.0823      0.00000
     55       5.5133      0.00000
     56       5.5145      0.00000
     57       7.1155      0.00000
     58       7.1467      0.00000
     59       7.4640      0.00000
     60       7.4733      0.00000

 k-point   132 :       0.2727    0.5000    0.5000
  band No.  band energies     occupation 
      1     -44.4227      2.00000
      2     -44.4226      2.00000
      3     -44.4176      2.00000
      4     -44.4176      2.00000
      5     -44.3588      2.00000
      6     -44.3587      2.00000
      7     -44.3561      2.00000
      8     -44.3561      2.00000
      9     -44.3070      2.00000
     10     -44.3069      2.00000
     11     -44.2742      2.00000
     12     -44.2741      2.00000
     13     -14.5978      2.00000
     14     -14.5973      2.00000
     15     -14.3050      2.00000
     16     -14.3047      2.00000
     17     -13.8336      2.00000
     18     -13.8327      2.00000
     19     -13.2957      2.00000
     20     -13.2953      2.00000
     21      -2.1242      2.00000
     22      -2.1238      2.00000
     23      -1.8816      2.00000
     24      -1.8813      2.00000
     25      -1.6234      2.00000
     26      -1.6230      2.00000
     27      -1.5975      2.00000
     28      -1.5969      2.00000
     29      -0.7021      2.00000
     30      -0.7014      2.00000
     31      -0.1306      2.00000
     32      -0.1299      2.00000
     33       0.3675      2.00000
     34       0.3682      2.00000
     35       0.5779      2.00000
     36       0.5785      2.00000
     37       0.8387      2.00000
     38       0.8393      2.00000
     39       1.4090      2.00000
     40       1.4099      2.00000
     41       1.5693      2.00000
     42       1.5710      2.00000
     43       2.5310      2.00000
     44       2.5324      2.00000
     45       4.0581      2.00000
     46       4.0585      2.00000
     47       4.1409      2.00000
     48       4.1417      2.00000
     49       4.5946      2.00000
     50       4.5950      2.00000
     51       4.7872      0.00000
     52       4.7883      0.00000
     53       5.1855      0.00000
     54       5.1862      0.00000
     55       5.3805      0.00000
     56       5.3813      0.00000
     57       6.8564      0.00000
     58       6.8722      0.00000
     59       7.5484      0.00000
     60       7.5750      0.00000

 k-point   133 :       0.3636    0.5000    0.5000
  band No.  band energies     occupation 
      1     -44.4750      2.00000
      2     -44.4750      2.00000
      3     -44.4717      2.00000
      4     -44.4717      2.00000
      5     -44.3482      2.00000
      6     -44.3482      2.00000
      7     -44.3472      2.00000
      8     -44.3472      2.00000
      9     -44.2978      2.00000
     10     -44.2977      2.00000
     11     -44.2761      2.00000
     12     -44.2760      2.00000
     13     -14.2883      2.00000
     14     -14.2880      2.00000
     15     -14.1755      2.00000
     16     -14.1753      2.00000
     17     -13.7529      2.00000
     18     -13.7523      2.00000
     19     -13.3124      2.00000
     20     -13.3122      2.00000
     21      -2.2381      2.00000
     22      -2.2374      2.00000
     23      -1.9288      2.00000
     24      -1.9285      2.00000
     25      -1.7684      2.00000
     26      -1.7682      2.00000
     27      -1.6458      2.00000
     28      -1.6455      2.00000
     29      -1.0008      2.00000
     30      -1.0000      2.00000
     31      -0.4607      2.00000
     32      -0.4594      2.00000
     33       0.4210      2.00000
     34       0.4226      2.00000
     35       0.5733      2.00000
     36       0.5742      2.00000
     37       0.7736      2.00000
     38       0.7738      2.00000
     39       1.2963      2.00000
     40       1.2971      2.00000
     41       1.7794      2.00000
     42       1.7811      2.00000
     43       2.4805      2.00000
     44       2.4820      2.00000
     45       4.0358      2.00000
     46       4.0368      2.00000
     47       4.2446      2.00000
     48       4.2451      2.00000
     49       4.6245      1.81927
     50       4.6250      1.79194
     51       4.8106      0.00000
     52       4.8114      0.00000
     53       5.1882      0.00000
     54       5.1889      0.00000
     55       5.2286      0.00000
     56       5.2292      0.00000
     57       6.8584      0.00000
     58       6.8697      0.00000
     59       6.9282      0.00000
     60       6.9545      0.00000

 k-point   134 :       0.4545    0.5000    0.5000
  band No.  band energies     occupation 
      1     -44.5056      2.00000
      2     -44.5055      2.00000
      3     -44.5044      2.00000
      4     -44.5043      2.00000
      5     -44.3420      2.00000
      6     -44.3419      2.00000
      7     -44.3418      2.00000
      8     -44.3417      2.00000
      9     -44.2886      2.00000
     10     -44.2885      2.00000
     11     -44.2809      2.00000
     12     -44.2809      2.00000
     13     -14.1235      2.00000
     14     -14.1234      2.00000
     15     -14.1061      2.00000
     16     -14.1059      2.00000
     17     -13.5837      2.00000
     18     -13.5835      2.00000
     19     -13.4055      2.00000
     20     -13.4055      2.00000
     21      -2.3882      2.00000
     22      -2.3875      2.00000
     23      -2.2649      2.00000
     24      -2.2643      2.00000
     25      -1.6441      2.00000
     26      -1.6435      2.00000
     27      -1.5607      2.00000
     28      -1.5601      2.00000
     29      -1.0486      2.00000
     30      -1.0474      2.00000
     31      -0.8210      2.00000
     32      -0.8198      2.00000
     33       0.4612      2.00000
     34       0.4624      2.00000
     35       0.5160      2.00000
     36       0.5169      2.00000
     37       0.9551      2.00000
     38       0.9552      2.00000
     39       1.1500      2.00000
     40       1.1505      2.00000
     41       2.0976      2.00000
     42       2.0992      2.00000
     43       2.3651      2.00000
     44       2.3666      2.00000
     45       4.0333      2.00000
     46       4.0342      2.00000
     47       4.1558      2.00000
     48       4.1564      2.00000
     49       4.7281      0.00000
     50       4.7285      0.00000
     51       4.8576      0.00000
     52       4.8579      0.00000
     53       5.0627      0.00000
     54       5.0635      0.00000
     55       5.1679      0.00000
     56       5.1683      0.00000
     57       6.8378      0.00000
     58       6.8396      0.00000
     59       6.8674      0.00000
     60       6.8682      0.00000


--------------------------------------------------------------------------------------------------------


 soft charge-density along one line, spin component           1
         0         1         2         3         4         5         6         7         8         9
 total charge-density along one line
 
 pseudopotential strength for first ion, spin component:           1
-44.377  -0.035  -0.000   8.811   0.013   0.000   0.000   0.006
 -0.035 -44.351  -0.000   0.013   8.799   0.000   0.000   0.001
 -0.000  -0.000 -44.380   0.000   0.000   8.815   0.005   0.000
  8.811   0.013   0.000   4.863  -0.005  -0.000  -0.000   0.002
  0.013   8.799   0.000  -0.005   4.866  -0.000  -0.000   0.000
  0.000   0.000   8.815  -0.000  -0.000   4.868  -0.000  -0.000
  0.000   0.000   0.005  -0.000  -0.000  -0.000  -4.619  -0.000
  0.006   0.001   0.000   0.002   0.000  -0.000  -0.000  -4.604
 -0.002  -0.010  -0.000   0.000   0.004   0.000   0.000  -0.004
  0.000   0.000  -0.011  -0.000  -0.000   0.003  -0.030  -0.000
  0.001  -0.009   0.000  -0.000   0.001  -0.000   0.000   0.009
  0.000   0.000   0.005  -0.000  -0.000  -0.000  -5.080  -0.000
  0.006   0.001   0.000   0.002  -0.000  -0.000  -0.000  -5.065
 -0.002  -0.010  -0.000   0.000   0.003   0.000   0.000  -0.004
  0.000   0.000  -0.011  -0.000  -0.000   0.003  -0.030  -0.000
  0.001  -0.009   0.000  -0.000   0.001  -0.000   0.000   0.008
  0.000   0.001  -0.000  -0.001  -0.003   0.000   0.000   0.006
  0.001   0.001  -0.000  -0.002  -0.007   0.000   0.000   0.013
 total augmentation occupancy for first ion, spin component:           1
  1.985  -0.000  -0.000  -0.056  -0.001  -0.000   0.000   0.026  -0.003   0.000   0.011  -0.000  -0.025   0.002  -0.000  -0.010
 -0.000   1.986  -0.000  -0.001  -0.055  -0.000   0.000  -0.012  -0.006   0.000  -0.015  -0.000   0.011   0.005  -0.000   0.014
 -0.000  -0.000   1.986  -0.000   0.000  -0.052   0.005   0.000  -0.000  -0.002   0.000  -0.004  -0.000   0.000   0.002  -0.000
 -0.056  -0.001  -0.000   0.269  -0.005   0.000   0.000   0.245  -0.088   0.000   0.156  -0.000  -0.272   0.073  -0.000  -0.160
 -0.001  -0.055   0.000  -0.005   0.275   0.000   0.000  -0.122  -0.164   0.000  -0.171  -0.000   0.137   0.176  -0.000   0.195
 -0.000  -0.000  -0.052   0.000   0.000   0.263   0.129   0.000  -0.000  -0.013   0.000  -0.137  -0.000   0.000   0.057  -0.000
  0.000   0.000   0.005   0.000   0.000   0.129   5.730   0.000  -0.000   0.074   0.000  -5.170  -0.000   0.000  -1.498  -0.000
  0.026  -0.012   0.000   0.245  -0.122   0.000   0.000   5.662  -0.099   0.000   0.853  -0.000  -5.988   0.685  -0.000  -1.872
 -0.003  -0.006  -0.000  -0.088  -0.164  -0.000  -0.000  -0.099   4.573  -0.000  -0.515   0.000   0.686  -3.382   0.000   0.722
  0.000   0.000  -0.002   0.000   0.000  -0.013   0.074   0.000  -0.000   5.510  -0.000  -1.490  -0.000   0.000  -5.326  -0.000
  0.011  -0.015   0.000   0.156  -0.171   0.000   0.000   0.853  -0.515  -0.000   4.746  -0.000  -1.883   0.722  -0.000  -4.158
 -0.000  -0.000  -0.004  -0.000  -0.000  -0.137  -5.170  -0.000   0.000  -1.490  -0.000   5.766   0.000  -0.000   2.570  -0.000
 -0.025   0.011  -0.000  -0.272   0.137  -0.000  -0.000  -5.988   0.686  -0.000  -1.883   0.000   7.259  -1.119   0.000   2.683
  0.002   0.005   0.000   0.073   0.176   0.000   0.000   0.685  -3.382   0.000   0.722  -0.000  -1.119   3.410  -0.000  -0.883
 -0.000  -0.000   0.002  -0.000  -0.000   0.057  -1.498  -0.000   0.000  -5.326  -0.000   2.570   0.000  -0.000   6.216   0.000
 -0.010   0.014  -0.000  -0.160   0.195  -0.000  -0.000  -1.872   0.722  -0.000  -4.158  -0.000   2.683  -0.883   0.000   4.612
  0.009   0.008   0.000   0.041  -0.001  -0.000  -0.000   0.403   0.159  -0.000  -0.316   0.000  -0.384  -0.070   0.000   0.227
 -0.004  -0.005  -0.000  -0.004   0.004   0.000   0.000  -0.069  -0.018   0.000   0.035  -0.000   0.077   0.001   0.000  -0.023


------------------------ aborting loop because EDIFF is reached ----------------------------------------


    CHARGE:  cpu time    0.5045: real time    0.5056
    FORLOC:  cpu time    0.0027: real time    0.0027
    FORNL :  cpu time    2.9574: real time    2.9618
    STRESS:  cpu time    3.3988: real time    3.4050
    FORCOR:  cpu time    0.0287: real time    0.0330
    FORHAR:  cpu time    0.0100: real time    0.0102
    MIXING:  cpu time    0.0020: real time    0.0020
    OFIELD:  cpu time    0.0001: real time    0.0001

  FORCE on cell =-STRESS in cart. coord.  units (eV):
  Direction    XX          YY          ZZ          XY          YZ          ZX
  --------------------------------------------------------------------------------------
  Alpha Z   468.37990   468.37990   468.37990
  Ewald   -1157.00945 -3941.26703 -2342.64867     0.09637     0.05761    -0.00510
  Hartree  2178.49526   172.31242  1350.69060     0.04621    -0.03710    -0.00194
  E(xc)    -546.04232  -546.98328  -546.42412     0.00021     0.00035    -0.00001
  Local   -2660.22854  2097.76976  -667.43279    -0.13941    -0.01957     0.00673
  n-local  -327.33558  -322.59313  -319.44928     0.00090     0.00134    -0.00013
  augment   448.46271   451.79525   452.02658    -0.00107    -0.00151     0.00014
  Kinetic  1595.51819  1621.02536  1604.60442    -0.00397     0.00064     0.00016
  Fock        0.00000     0.00000     0.00000     0.00000     0.00000     0.00000
  -------------------------------------------------------------------------------------
  Total       0.24017     0.43924    -0.25336    -0.00077     0.00177    -0.00016
  in kB       3.23975     5.92509    -3.41763    -0.01035     0.02389    -0.00220
  external pressure =        1.92 kB  Pullay stress =        0.00 kB


 VOLUME and BASIS-vectors are now :
 -----------------------------------------------------------------------------
  energy-cutoff  :      520.00
  volume of cell :      118.77
      direct lattice vectors                 reciprocal lattice vectors
     2.688697425  0.000009566  0.000002704     0.371927310 -0.000001222  0.000000088
     0.000015837  4.820718547  0.000648111    -0.000000738  0.207437960 -0.000032051
    -0.000002157  0.001415851  9.163570660    -0.000000110 -0.000014671  0.109127769

  length of vectors
     2.688697425  4.820718590  9.163570769     0.371927310  0.207437962  0.109127770


 FORCES acting on ions
    electron-ion (+dipol)            ewald-force                    non-local-force                 convergence-correction
 -----------------------------------------------------------------------------------------------
   -.517E-02 -.470E+02 0.128E+03   0.531E-02 0.477E+02 -.126E+03   0.296E-04 -.687E+00 -.137E+01   -.137E-04 -.158E-02 0.172E-01
   0.186E-01 0.472E+02 -.128E+03   -.186E-01 -.479E+02 0.126E+03   -.630E-03 0.693E+00 0.137E+01   -.195E-04 0.829E-02 -.346E-01
   -.199E-01 -.479E+02 -.128E+03   0.200E-01 0.486E+02 0.127E+03   0.646E-03 -.688E+00 0.137E+01   0.289E-04 0.543E-02 0.477E-01
   0.420E-02 0.477E+02 0.128E+03   -.435E-02 -.484E+02 -.127E+03   0.603E-04 0.686E+00 -.137E+01   -.556E-04 -.265E-02 -.403E-01
   0.311E-02 -.385E+03 0.838E+02   -.339E-02 0.408E+03 -.919E+02   -.220E-04 -.232E+02 0.815E+01   -.165E-04 0.133E-01 -.137E-01
   0.142E-02 -.385E+03 -.836E+02   -.138E-02 0.408E+03 0.917E+02   -.262E-03 -.231E+02 -.812E+01   0.134E-04 -.156E-01 -.227E-01
   -.542E-02 0.385E+03 0.837E+02   0.594E-02 -.408E+03 -.918E+02   -.113E-03 0.232E+02 0.813E+01   -.120E-04 0.126E-01 -.195E-01
   -.790E-03 0.385E+03 -.835E+02   0.581E-03 -.408E+03 0.917E+02   0.442E-03 0.231E+02 -.815E+01   0.572E-05 -.731E-02 -.171E-01
   -.144E-01 -.409E+02 -.544E+02   0.157E-01 0.438E+02 0.568E+02   -.739E-03 -.289E+01 -.232E+01   0.850E-05 0.205E-02 -.137E-01
   0.174E-01 0.407E+02 -.548E+02   -.187E-01 -.435E+02 0.571E+02   0.766E-03 0.289E+01 -.232E+01   -.279E-05 -.334E-01 0.447E-01
   -.104E-02 -.408E+02 0.547E+02   0.824E-03 0.437E+02 -.570E+02   0.584E-03 -.291E+01 0.232E+01   0.536E-06 -.330E-02 -.119E-01
   0.193E-02 0.410E+02 0.545E+02   -.181E-02 -.440E+02 -.569E+02   -.499E-03 0.291E+01 0.234E+01   -.115E-04 0.340E-01 0.428E-01
 -----------------------------------------------------------------------------------------------
   -.169E-03 -.144E-01 -.150E-01   0.275E-15 -.185E-12 -.426E-13   0.265E-03 0.271E-02 0.365E-01   -.744E-04 0.118E-01 -.211E-01
 
 
 POSITION                                       TOTAL-FORCE (eV/Angst)
 -----------------------------------------------------------------------------------
      0.67221      0.24509      7.86132         0.000156      0.020463      0.023247
      2.01655      4.57731      1.30265        -0.000645     -0.027746     -0.021896
      2.01652      2.65541      5.88389         0.000701      0.028385     -0.019848
      0.67214      2.16639      3.28016        -0.000152     -0.016634      0.022977
      0.67219      3.38528      4.78156        -0.000318     -0.055271      0.035778
      2.01655      0.97503      8.96354        -0.000214     -0.049376     -0.032226
      0.67218      3.84674      0.20070         0.000391      0.052685      0.032403
      2.01650      1.43691      4.38290         0.000236      0.052664     -0.039435
      0.67210      0.77068      2.13857         0.000483     -0.001795      0.011945
      0.67227      1.64116      6.72030        -0.000616      0.004557      0.010759
      2.01646      3.18124      2.44415         0.000368     -0.008498     -0.010649
      2.01661      4.05164      7.02561        -0.000391      0.000567     -0.013056
 -----------------------------------------------------------------------------------
    total drift:                                0.000022      0.000132      0.000369


--------------------------------------------------------------------------------------------------------



  FREE ENERGIE OF THE ION-ELECTRON SYSTEM (eV)
  ---------------------------------------------------
  free  energy   TOTEN  =       -92.52769557 eV

  energy  without entropy=      -92.52687402  energy(sigma->0) =      -92.52728479
 


--------------------------------------------------------------------------------------------------------


    POTLOK:  cpu time    0.1786: real time    0.1806


--------------------------------------------------------------------------------------------------------


 stress matrix after NEB project (eV)
      0.24017     -0.00077     -0.00016
     -0.00077      0.43924      0.00177
     -0.00016      0.00177     -0.25336
  FORCES: max atom, RMS     0.065841    0.041653
  FORCE total and by dimension    0.144289    0.055271
  Stress total and by dimension    0.561081    0.439241
 writing wavefunctions
     LOOP+:  cpu time  194.5282: real time  199.8152
    4ORBIT:  cpu time    0.0000: real time    0.0000

 total amount of memory used by VASP MPI-rank0    92396. kBytes
=======================================================================

   base      :      30000. kBytes
   nonl-proj :      31492. kBytes
   fftplans  :       1370. kBytes
   grid      :       2217. kBytes
   one-center:         46. kBytes
   wavefun   :      27271. kBytes
 
  
  
 General timing and accounting informations for this job:
 ========================================================
  
                  Total CPU time used (sec):      201.457
                            User time (sec):      189.964
                          System time (sec):       11.493
                         Elapsed time (sec):      207.200
  
                   Maximum memory used (kb):      111284.
                   Average memory used (kb):           0.
  
                          Minor page faults:       178150
                          Major page faults:            4
                 Voluntary context switches:          755
