<?xml version="1.0" encoding="ISO-8859-1"?>
<modeling>
 <generator>
  <i name="program" type="string">vasp </i>
  <i name="version" type="string">5.4.4.18Apr17-6-g9f103f2a35  </i>
  <i name="subversion" type="string">(build Nov 08 2022 17:27:33) complex            parallel </i>
  <i name="platform" type="string">LinuxIFC </i>
  <i name="date" type="string">2022 11 22 </i>
  <i name="time" type="string">21:36:00 </i>
 </generator>
 <incar>
  <i type="string" name="PREC">accurate</i>
  <i type="string" name="ALGO"> Fast</i>
  <i type="int" name="ISPIN">     1</i>
  <i type="int" name="ICHARG">     0</i>
  <i type="int" name="NELM">   100</i>
  <i type="int" name="IBRION">     2</i>
  <i name="EDIFF">      0.00000100</i>
  <i name="EDIFFG">     -0.03000000</i>
  <i type="int" name="NSW">     0</i>
  <i type="int" name="ISIF">     3</i>
  <i type="int" name="ISYM">     0</i>
  <i name="ENCUT">    520.00000000</i>
  <i name="ENAUG">   1040.00000000</i>
  <v name="MAGMOM">      0.00000000      0.00000000      0.00000000      0.00000000      0.00000000      0.00000000      0.00000000      0.00000000      0.00000000      0.00000000      0.00000000      0.00000000</v>
  <i type="logical" name="LREAL"> F  </i>
  <i type="int" name="ISMEAR">     0</i>
  <i name="SIGMA">      0.01000000</i>
  <i name="KSPACING">      0.22000000</i>
  <i type="int" name="LMAXMIX">     4</i>
  <i type="logical" name="LWAVE"> T  </i>
  <i type="logical" name="LCHARG"> T  </i>
  <i type="logical" name="LVHAR"> T  </i>
  <i type="int" name="LORBIT">     0</i>
  <i type="logical" name="LASPH"> T  </i>
  <i type="logical" name="LAECHG"> T  </i>
  <v type="int" name="KPOINT_BSE">    -1     0     0     0</v>
  <i type="int" name="NELM">   100</i>
  <i type="string" name="GGA"> Pe</i>
  <i type="logical" name="LASPH"> T  </i>
 </incar>
 <structure name="primitive_cell" >
  <crystal>
   <varray name="basis" >
    <v>       2.68869742       0.00000957       0.00000270 </v>
    <v>       0.00001584       4.82071855       0.00064811 </v>
    <v>      -0.00000216       0.00141585       9.16357066 </v>
   </varray>
   <i name="volume">    118.77319291 </i>
   <varray name="rec_basis" >
    <v>       0.37192731      -0.00000122       0.00000009 </v>
    <v>      -0.00000074       0.20743796      -0.00003205 </v>
    <v>      -0.00000011      -0.00001467       0.10912777 </v>
   </varray>
  </crystal>
  <varray name="positions" >
   <v>       0.25001214       0.05058768      -0.14211567 </v>
   <v>       0.25003248       0.34022316      -0.26665293 </v>
   <v>      -0.24997211      -0.15976371      -0.23337071 </v>
   <v>      -0.24999033       0.20196863      -0.02184342 </v>
   <v>       0.24999658      -0.20204644       0.02184509 </v>
   <v>      -0.24999699      -0.05053633       0.14208785 </v>
   <v>      -0.25000306      -0.44935814      -0.35794297 </v>
   <v>       0.24997290       0.15980014       0.23336640 </v>
   <v>       0.25000058      -0.29791747      -0.47824923 </v>
   <v>      -0.25001132       0.29792779       0.47827449 </v>
   <v>      -0.25002701      -0.34016981       0.26667731 </v>
   <v>       0.24998612       0.44928551       0.35792477 </v>
  </varray>
 </structure>
 <varray name="primitive_index" >
  <v type="int" >        1 </v>
  <v type="int" >       10 </v>
  <v type="int" >       12 </v>
  <v type="int" >        6 </v>
  <v type="int" >        7 </v>
  <v type="int" >        2 </v>
  <v type="int" >        3 </v>
  <v type="int" >        9 </v>
  <v type="int" >        5 </v>
  <v type="int" >        8 </v>
  <v type="int" >       11 </v>
  <v type="int" >        4 </v>
 </varray>
 <kpoints>
  <generation param="Gamma">
   <v type="int" name="divisions">      11        6        4 </v>
   <v name="usershift">      0.00000000       0.00000000       0.00000000 </v>
   <v name="genvec1">      0.09090909       0.00000000      -0.00000000 </v>
   <v name="genvec2">      0.00000000       0.16666667       0.00000000 </v>
   <v name="genvec3">      0.00000000       0.00000000       0.25000000 </v>
   <v name="shift">      0.00000000       0.00000000       0.00000000 </v>
  </generation>
  <varray name="kpointlist" >
   <v>       0.00000000       0.00000000       0.00000000 </v>
   <v>       0.09090909      -0.00000000       0.00000000 </v>
   <v>       0.18181818      -0.00000000       0.00000000 </v>
   <v>       0.27272727      -0.00000000      -0.00000000 </v>
   <v>       0.36363636      -0.00000000       0.00000000 </v>
   <v>       0.45454545      -0.00000000       0.00000000 </v>
   <v>       0.00000000       0.16666667      -0.00000000 </v>
   <v>       0.09090909       0.16666667       0.00000000 </v>
   <v>       0.18181818       0.16666667      -0.00000000 </v>
   <v>       0.27272727       0.16666667       0.00000000 </v>
   <v>       0.36363636       0.16666667      -0.00000000 </v>
   <v>       0.45454545       0.16666667      -0.00000000 </v>
   <v>      -0.45454545       0.16666667       0.00000000 </v>
   <v>      -0.36363636       0.16666667      -0.00000000 </v>
   <v>      -0.27272727       0.16666667      -0.00000000 </v>
   <v>      -0.18181818       0.16666667       0.00000000 </v>
   <v>      -0.09090909       0.16666667      -0.00000000 </v>
   <v>       0.00000000       0.33333333      -0.00000000 </v>
   <v>       0.09090909       0.33333333      -0.00000000 </v>
   <v>       0.18181818       0.33333333       0.00000000 </v>
   <v>       0.27272727       0.33333333      -0.00000000 </v>
   <v>       0.36363636       0.33333333      -0.00000000 </v>
   <v>       0.45454545       0.33333333      -0.00000000 </v>
   <v>      -0.45454545       0.33333333       0.00000000 </v>
   <v>      -0.36363636       0.33333333       0.00000000 </v>
   <v>      -0.27272727       0.33333333      -0.00000000 </v>
   <v>      -0.18181818       0.33333333      -0.00000000 </v>
   <v>      -0.09090909       0.33333333      -0.00000000 </v>
   <v>      -0.00000000       0.50000000       0.00000000 </v>
   <v>       0.09090909       0.50000000       0.00000000 </v>
   <v>       0.18181818       0.50000000      -0.00000000 </v>
   <v>       0.27272727       0.50000000       0.00000000 </v>
   <v>       0.36363636       0.50000000       0.00000000 </v>
   <v>       0.45454545       0.50000000      -0.00000000 </v>
   <v>       0.00000000      -0.00000000       0.25000000 </v>
   <v>       0.09090909       0.00000000       0.25000000 </v>
   <v>       0.18181818       0.00000000       0.25000000 </v>
   <v>       0.27272727       0.00000000       0.25000000 </v>
   <v>       0.36363636      -0.00000000       0.25000000 </v>
   <v>       0.45454545       0.00000000       0.25000000 </v>
   <v>      -0.45454545      -0.00000000       0.25000000 </v>
   <v>      -0.36363636      -0.00000000       0.25000000 </v>
   <v>      -0.27272727      -0.00000000       0.25000000 </v>
   <v>      -0.18181818       0.00000000       0.25000000 </v>
   <v>      -0.09090909      -0.00000000       0.25000000 </v>
   <v>       0.00000000       0.16666667       0.25000000 </v>
   <v>       0.09090909       0.16666667       0.25000000 </v>
   <v>       0.18181818       0.16666667       0.25000000 </v>
   <v>       0.27272727       0.16666667       0.25000000 </v>
   <v>       0.36363636       0.16666667       0.25000000 </v>
   <v>       0.45454545       0.16666667       0.25000000 </v>
   <v>      -0.45454545       0.16666667       0.25000000 </v>
   <v>      -0.36363636       0.16666667       0.25000000 </v>
   <v>      -0.27272727       0.16666667       0.25000000 </v>
   <v>      -0.18181818       0.16666667       0.25000000 </v>
   <v>      -0.09090909       0.16666667       0.25000000 </v>
   <v>       0.00000000       0.33333333       0.25000000 </v>
   <v>       0.09090909       0.33333333       0.25000000 </v>
   <v>       0.18181818       0.33333333       0.25000000 </v>
   <v>       0.27272727       0.33333333       0.25000000 </v>
   <v>       0.36363636       0.33333333       0.25000000 </v>
   <v>       0.45454545       0.33333333       0.25000000 </v>
   <v>      -0.45454545       0.33333333       0.25000000 </v>
   <v>      -0.36363636       0.33333333       0.25000000 </v>
   <v>      -0.27272727       0.33333333       0.25000000 </v>
   <v>      -0.18181818       0.33333333       0.25000000 </v>
   <v>      -0.09090909       0.33333333       0.25000000 </v>
   <v>      -0.00000000       0.50000000       0.25000000 </v>
   <v>       0.09090909       0.50000000       0.25000000 </v>
   <v>       0.18181818       0.50000000       0.25000000 </v>
   <v>       0.27272727       0.50000000       0.25000000 </v>
   <v>       0.36363636       0.50000000       0.25000000 </v>
   <v>       0.45454545       0.50000000       0.25000000 </v>
   <v>      -0.45454545       0.50000000       0.25000000 </v>
   <v>      -0.36363636       0.50000000       0.25000000 </v>
   <v>      -0.27272727       0.50000000       0.25000000 </v>
   <v>      -0.18181818       0.50000000       0.25000000 </v>
   <v>      -0.09090909       0.50000000       0.25000000 </v>
   <v>       0.00000000      -0.33333333       0.25000000 </v>
   <v>       0.09090909      -0.33333333       0.25000000 </v>
   <v>       0.18181818      -0.33333333       0.25000000 </v>
   <v>       0.27272727      -0.33333333       0.25000000 </v>
   <v>       0.36363636      -0.33333333       0.25000000 </v>
   <v>       0.45454545      -0.33333333       0.25000000 </v>
   <v>      -0.45454545      -0.33333333       0.25000000 </v>
   <v>      -0.36363636      -0.33333333       0.25000000 </v>
   <v>      -0.27272727      -0.33333333       0.25000000 </v>
   <v>      -0.18181818      -0.33333333       0.25000000 </v>
   <v>      -0.09090909      -0.33333333       0.25000000 </v>
   <v>       0.00000000      -0.16666667       0.25000000 </v>
   <v>       0.09090909      -0.16666667       0.25000000 </v>
   <v>       0.18181818      -0.16666667       0.25000000 </v>
   <v>       0.27272727      -0.16666667       0.25000000 </v>
   <v>       0.36363636      -0.16666667       0.25000000 </v>
   <v>       0.45454545      -0.16666667       0.25000000 </v>
   <v>      -0.45454545      -0.16666667       0.25000000 </v>
   <v>      -0.36363636      -0.16666667       0.25000000 </v>
   <v>      -0.27272727      -0.16666667       0.25000000 </v>
   <v>      -0.18181818      -0.16666667       0.25000000 </v>
   <v>      -0.09090909      -0.16666667       0.25000000 </v>
   <v>       0.00000000      -0.00000000       0.50000000 </v>
   <v>       0.09090909      -0.00000000       0.50000000 </v>
   <v>       0.18181818       0.00000000       0.50000000 </v>
   <v>       0.27272727      -0.00000000       0.50000000 </v>
   <v>       0.36363636       0.00000000       0.50000000 </v>
   <v>       0.45454545      -0.00000000       0.50000000 </v>
   <v>      -0.00000000       0.16666667       0.50000000 </v>
   <v>       0.09090909       0.16666667       0.50000000 </v>
   <v>       0.18181818       0.16666667       0.50000000 </v>
   <v>       0.27272727       0.16666667       0.50000000 </v>
   <v>       0.36363636       0.16666667       0.50000000 </v>
   <v>       0.45454545       0.16666667       0.50000000 </v>
   <v>      -0.45454545       0.16666667       0.50000000 </v>
   <v>      -0.36363636       0.16666667       0.50000000 </v>
   <v>      -0.27272727       0.16666667       0.50000000 </v>
   <v>      -0.18181818       0.16666667       0.50000000 </v>
   <v>      -0.09090909       0.16666667       0.50000000 </v>
   <v>       0.00000000       0.33333333       0.50000000 </v>
   <v>       0.09090909       0.33333333       0.50000000 </v>
   <v>       0.18181818       0.33333333       0.50000000 </v>
   <v>       0.27272727       0.33333333       0.50000000 </v>
   <v>       0.36363636       0.33333333       0.50000000 </v>
   <v>       0.45454545       0.33333333       0.50000000 </v>
   <v>      -0.45454545       0.33333333       0.50000000 </v>
   <v>      -0.36363636       0.33333333       0.50000000 </v>
   <v>      -0.27272727       0.33333333       0.50000000 </v>
   <v>      -0.18181818       0.33333333       0.50000000 </v>
   <v>      -0.09090909       0.33333333       0.50000000 </v>
   <v>      -0.00000000       0.50000000       0.50000000 </v>
   <v>       0.09090909       0.50000000       0.50000000 </v>
   <v>       0.18181818       0.50000000       0.50000000 </v>
   <v>       0.27272727       0.50000000       0.50000000 </v>
   <v>       0.36363636       0.50000000       0.50000000 </v>
   <v>       0.45454545       0.50000000       0.50000000 </v>
  </varray>
  <varray name="weights" >
   <v>       0.00378788 </v>
   <v>       0.00757576 </v>
   <v>       0.00757576 </v>
   <v>       0.00757576 </v>
   <v>       0.00757576 </v>
   <v>       0.00757576 </v>
   <v>       0.00757576 </v>
   <v>       0.00757576 </v>
   <v>       0.00757576 </v>
   <v>       0.00757576 </v>
   <v>       0.00757576 </v>
   <v>       0.00757576 </v>
   <v>       0.00757576 </v>
   <v>       0.00757576 </v>
   <v>       0.00757576 </v>
   <v>       0.00757576 </v>
   <v>       0.00757576 </v>
   <v>       0.00757576 </v>
   <v>       0.00757576 </v>
   <v>       0.00757576 </v>
   <v>       0.00757576 </v>
   <v>       0.00757576 </v>
   <v>       0.00757576 </v>
   <v>       0.00757576 </v>
   <v>       0.00757576 </v>
   <v>       0.00757576 </v>
   <v>       0.00757576 </v>
   <v>       0.00757576 </v>
   <v>       0.00378788 </v>
   <v>       0.00757576 </v>
   <v>       0.00757576 </v>
   <v>       0.00757576 </v>
   <v>       0.00757576 </v>
   <v>       0.00757576 </v>
   <v>       0.00757576 </v>
   <v>       0.00757576 </v>
   <v>       0.00757576 </v>
   <v>       0.00757576 </v>
   <v>       0.00757576 </v>
   <v>       0.00757576 </v>
   <v>       0.00757576 </v>
   <v>       0.00757576 </v>
   <v>       0.00757576 </v>
   <v>       0.00757576 </v>
   <v>       0.00757576 </v>
   <v>       0.00757576 </v>
   <v>       0.00757576 </v>
   <v>       0.00757576 </v>
   <v>       0.00757576 </v>
   <v>       0.00757576 </v>
   <v>       0.00757576 </v>
   <v>       0.00757576 </v>
   <v>       0.00757576 </v>
   <v>       0.00757576 </v>
   <v>       0.00757576 </v>
   <v>       0.00757576 </v>
   <v>       0.00757576 </v>
   <v>       0.00757576 </v>
   <v>       0.00757576 </v>
   <v>       0.00757576 </v>
   <v>       0.00757576 </v>
   <v>       0.00757576 </v>
   <v>       0.00757576 </v>
   <v>       0.00757576 </v>
   <v>       0.00757576 </v>
   <v>       0.00757576 </v>
   <v>       0.00757576 </v>
   <v>       0.00757576 </v>
   <v>       0.00757576 </v>
   <v>       0.00757576 </v>
   <v>       0.00757576 </v>
   <v>       0.00757576 </v>
   <v>       0.00757576 </v>
   <v>       0.00757576 </v>
   <v>       0.00757576 </v>
   <v>       0.00757576 </v>
   <v>       0.00757576 </v>
   <v>       0.00757576 </v>
   <v>       0.00757576 </v>
   <v>       0.00757576 </v>
   <v>       0.00757576 </v>
   <v>       0.00757576 </v>
   <v>       0.00757576 </v>
   <v>       0.00757576 </v>
   <v>       0.00757576 </v>
   <v>       0.00757576 </v>
   <v>       0.00757576 </v>
   <v>       0.00757576 </v>
   <v>       0.00757576 </v>
   <v>       0.00757576 </v>
   <v>       0.00757576 </v>
   <v>       0.00757576 </v>
   <v>       0.00757576 </v>
   <v>       0.00757576 </v>
   <v>       0.00757576 </v>
   <v>       0.00757576 </v>
   <v>       0.00757576 </v>
   <v>       0.00757576 </v>
   <v>       0.00757576 </v>
   <v>       0.00757576 </v>
   <v>       0.00378788 </v>
   <v>       0.00757576 </v>
   <v>       0.00757576 </v>
   <v>       0.00757576 </v>
   <v>       0.00757576 </v>
   <v>       0.00757576 </v>
   <v>       0.00757576 </v>
   <v>       0.00757576 </v>
   <v>       0.00757576 </v>
   <v>       0.00757576 </v>
   <v>       0.00757576 </v>
   <v>       0.00757576 </v>
   <v>       0.00757576 </v>
   <v>       0.00757576 </v>
   <v>       0.00757576 </v>
   <v>       0.00757576 </v>
   <v>       0.00757576 </v>
   <v>       0.00757576 </v>
   <v>       0.00757576 </v>
   <v>       0.00757576 </v>
   <v>       0.00757576 </v>
   <v>       0.00757576 </v>
   <v>       0.00757576 </v>
   <v>       0.00757576 </v>
   <v>       0.00757576 </v>
   <v>       0.00757576 </v>
   <v>       0.00757576 </v>
   <v>       0.00757576 </v>
   <v>       0.00378788 </v>
   <v>       0.00757576 </v>
   <v>       0.00757576 </v>
   <v>       0.00757576 </v>
   <v>       0.00757576 </v>
   <v>       0.00757576 </v>
  </varray>
 </kpoints>
 <parameters>
  <separator name="general" >
   <i type="string" name="SYSTEM">unknown system</i>
   <i type="logical" name="LCOMPAT"> F  </i>
  </separator>
  <separator name="electronic" >
   <i type="string" name="PREC">accura</i>
   <i name="ENMAX">    520.00000000</i>
   <i name="ENAUG">   1040.00000000</i>
   <i name="EDIFF">      0.00000100</i>
   <i type="int" name="IALGO">    68</i>
   <i type="int" name="IWAVPR">    10</i>
   <i type="int" name="NBANDS">    60</i>
   <i name="NELECT">    100.00000000</i>
   <i type="int" name="TURBO">     0</i>
   <i type="int" name="IRESTART">     0</i>
   <i type="int" name="NREBOOT">     0</i>
   <i type="int" name="NMIN">     0</i>
   <i name="EREF">      0.00000000</i>
   <separator name="electronic smearing" >
    <i type="int" name="ISMEAR">     0</i>
    <i name="SIGMA">      0.01000000</i>
    <i name="KSPACING">      0.22000000</i>
    <i type="logical" name="KGAMMA"> T  </i>
   </separator>
   <separator name="electronic projectors" >
    <i type="logical" name="LREAL"> F  </i>
    <v name="ROPT">      0.00000000      0.00000000</v>
    <i type="int" name="LMAXPAW">  -100</i>
    <i type="int" name="LMAXMIX">     4</i>
    <i type="logical" name="NLSPLINE"> F  </i>
   </separator>
   <separator name="electronic startup" >
    <i type="int" name="ISTART">     1</i>
    <i type="int" name="ICHARG">     0</i>
    <i type="int" name="INIWAV">     1</i>
   </separator>
   <separator name="electronic spin" >
    <i type="int" name="ISPIN">     1</i>
    <i type="logical" name="LNONCOLLINEAR"> F  </i>
    <v name="MAGMOM">      0.00000000      0.00000000      0.00000000      0.00000000      0.00000000      0.00000000      0.00000000      0.00000000      0.00000000      0.00000000      0.00000000      0.00000000</v>
    <i name="NUPDOWN">     -1.00000000</i>
    <i type="logical" name="LSORBIT"> F  </i>
    <v name="SAXIS">      0.00000000      0.00000000      1.00000000</v>
    <i type="logical" name="LSPIRAL"> F  </i>
    <v name="QSPIRAL">      0.00000000      0.00000000      0.00000000</v>
    <i type="logical" name="LZEROZ"> F  </i>
   </separator>
   <separator name="electronic exchange-correlation" >
    <i type="logical" name="LASPH"> T  </i>
    <i type="logical" name="LMETAGGA"> F  </i>
   </separator>
   <separator name="electronic convergence" >
    <i type="int" name="NELM">   100</i>
    <i type="int" name="NELMDL">     0</i>
    <i type="int" name="NELMIN">     2</i>
    <i name="ENINI">    520.00000000</i>
    <separator name="electronic convergence detail" >
     <i type="logical" name="LDIAG"> T  </i>
     <i type="logical" name="LSUBROT"> F  </i>
     <i name="WEIMIN">      0.00000000</i>
     <i name="EBREAK">      0.00000000</i>
     <i name="DEPER">      0.30000000</i>
     <i type="int" name="NRMM">     4</i>
     <i name="TIME">      0.40000000</i>
    </separator>
   </separator>
   <separator name="electronic mixer" >
    <i name="AMIX">      0.40000000</i>
    <i name="BMIX">      1.00000000</i>
    <i name="AMIN">      0.10000000</i>
    <i name="AMIX_MAG">      1.60000000</i>
    <i name="BMIX_MAG">      1.00000000</i>
    <separator name="electronic mixer details" >
     <i type="int" name="IMIX">     4</i>
     <i type="logical" name="MIXFIRST"> F  </i>
     <i type="int" name="MAXMIX">   -45</i>
     <i name="WC">    100.00000000</i>
     <i type="int" name="INIMIX">     1</i>
     <i type="int" name="MIXPRE">     1</i>
     <i type="int" name="MREMOVE">     5</i>
    </separator>
   </separator>
   <separator name="electronic dipolcorrection" >
    <i type="logical" name="LDIPOL"> F  </i>
    <i type="logical" name="LMONO"> F  </i>
    <i type="int" name="IDIPOL">     0</i>
    <i name="EPSILON">      1.00000000</i>
    <v name="DIPOL">   -100.00000000   -100.00000000   -100.00000000</v>
    <i name="EFIELD">      0.00000000</i>
   </separator>
  </separator>
  <separator name="grids" >
   <i type="int" name="NGX">    20</i>
   <i type="int" name="NGY">    36</i>
   <i type="int" name="NGZ">    70</i>
   <i type="int" name="NGXF">    40</i>
   <i type="int" name="NGYF">    72</i>
   <i type="int" name="NGZF">   140</i>
   <i type="logical" name="ADDGRID"> F  </i>
  </separator>
  <separator name="ionic" >
   <i type="int" name="NSW">     0</i>
   <i type="int" name="IBRION">    -1</i>
   <i type="int" name="MDALGO">     0</i>
   <i type="int" name="ISIF">     3</i>
   <i name="PSTRESS">      0.00000000</i>
   <i name="EDIFFG">     -0.03000000</i>
   <i type="int" name="NFREE">     1</i>
   <i name="POTIM">      0.50000000</i>
   <i name="SMASS">     -3.00000000</i>
   <i name="SCALEE">      1.00000000</i>
  </separator>
  <separator name="ionic md" >
   <i name="TEBEG">      0.00010000</i>
   <i name="TEEND">      0.00010000</i>
   <i type="int" name="NBLOCK">     1</i>
   <i type="int" name="KBLOCK">     1</i>
   <i type="int" name="NPACO">   256</i>
   <i name="APACO">     16.00000000</i>
  </separator>
  <separator name="symmetry" >
   <i type="int" name="ISYM">     0</i>
   <i name="SYMPREC">      0.00001000</i>
  </separator>
  <separator name="dos" >
   <i type="int" name="LORBIT">     0</i>
   <v name="RWIGS">     -1.00000000     -1.00000000</v>
   <i type="int" name="NEDOS">   301</i>
   <i name="EMIN">     10.00000000</i>
   <i name="EMAX">    -10.00000000</i>
   <i name="EFERMI">      0.00000000</i>
  </separator>
  <separator name="writing" >
   <i type="int" name="NWRITE">     2</i>
   <i type="logical" name="LWAVE"> T  </i>
   <i type="logical" name="LDOWNSAMPLE"> F  </i>
   <i type="logical" name="LCHARG"> T  </i>
   <i type="logical" name="LPARD"> F  </i>
   <i type="logical" name="LVTOT"> F  </i>
   <i type="logical" name="LVHAR"> T  </i>
   <i type="logical" name="LELF"> F  </i>
   <i type="logical" name="LOPTICS"> F  </i>
   <v name="STM">      0.00000000      0.00000000      0.00000000      0.00000000      0.00000000      0.00000000      0.00000000</v>
  </separator>
  <separator name="performance" >
   <i type="int" name="NPAR">     4</i>
   <i type="int" name="NSIM">     4</i>
   <i type="int" name="NBLK">    -1</i>
   <i type="logical" name="LPLANE"> T  </i>
   <i type="logical" name="LSCALAPACK"> T  </i>
   <i type="logical" name="LSCAAWARE"> F  </i>
   <i type="logical" name="LSCALU"> F  </i>
   <i type="logical" name="LASYNC"> F  </i>
   <i type="logical" name="LORBITALREAL"> F  </i>
  </separator>
  <separator name="miscellaneous" >
   <i type="int" name="IDIOT">     3</i>
   <i type="int" name="ISPECIAL">     0</i>
   <i type="logical" name="LMUSIC"> F  </i>
   <v name="POMASS">     54.93800000     16.00000000</v>
   <v name="DARWINR">      0.00000000      0.00000000</v>
   <v name="DARWINV">      1.00000000      1.00000000</v>
   <i type="logical" name="LCORR"> T  </i>
  </separator>
  <i type="logical" name="GGA_COMPAT"> T  </i>
  <i type="logical" name="LBERRY"> F  </i>
  <i type="int" name="ICORELEVEL">     0</i>
  <i type="logical" name="LDAU"> F  </i>
  <i type="int" name="I_CONSTRAINED_M">     0</i>
  <separator name="electronic exchange-correlation" >
   <i type="string" name="GGA">PE</i>
   <i type="int" name="VOSKOWN">     0</i>
   <i type="logical" name="LHFCALC"> F  </i>
   <i type="string" name="PRECFOCK"></i>
   <i type="logical" name="LSYMGRAD"> F  </i>
   <i type="logical" name="LHFONE"> F  </i>
   <i type="logical" name="LRHFCALC"> F  </i>
   <i type="logical" name="LTHOMAS"> F  </i>
   <i type="logical" name="LMODELHF"> F  </i>
   <i name="ENCUT4O">     -1.00000000</i>
   <i type="int" name="EXXOEP">     0</i>
   <i type="int" name="FOURORBIT">     0</i>
   <i name="AEXX">      0.00000000</i>
   <i name="HFALPHA">      0.00000000</i>
   <i name="MCALPHA">      0.00000000</i>
   <i name="ALDAX">      1.00000000</i>
   <i name="AGGAX">      1.00000000</i>
   <i name="ALDAC">      1.00000000</i>
   <i name="AGGAC">      1.00000000</i>
   <i type="int" name="NKREDX">     1</i>
   <i type="int" name="NKREDY">     1</i>
   <i type="int" name="NKREDZ">     1</i>
   <i type="logical" name="SHIFTRED"> F  </i>
   <i type="logical" name="ODDONLY"> F  </i>
   <i type="logical" name="EVENONLY"> F  </i>
   <i type="int" name="LMAXFOCK">     0</i>
   <i type="int" name="NMAXFOCKAE">     0</i>
   <i type="logical" name="LFOCKAEDFT"> F  </i>
   <i name="HFSCREEN">      0.00000000</i>
   <i name="HFSCREENC">      0.00000000</i>
   <i type="int" name="NBANDSGWLOW">     0</i>
  </separator>
  <separator name="vdW DFT" >
   <i type="logical" name="LUSE_VDW"> F  </i>
   <i name="Zab_VDW">     -0.84910000</i>
   <i name="PARAM1">      0.12340000</i>
   <i name="PARAM2">      1.00000000</i>
   <i name="PARAM3">      0.00000000</i>
  </separator>
  <separator name="model GW" >
   <i type="int" name="MODEL_GW">     0</i>
   <i name="MODEL_EPS0">      5.93865965</i>
   <i name="MODEL_ALPHA">      1.00000000</i>
  </separator>
  <separator name="linear response parameters" >
   <i type="logical" name="LEPSILON"> F  </i>
   <i type="logical" name="LRPA"> F  </i>
   <i type="logical" name="LNABLA"> F  </i>
   <i type="logical" name="LVEL"> F  </i>
   <i type="int" name="KINTER">     0</i>
   <i name="CSHIFT">      0.10000000</i>
   <i name="OMEGAMAX">     -1.00000000</i>
   <i name="DEG_THRESHOLD">      0.00200000</i>
   <i name="RTIME">     -0.10000000</i>
   <i name="WPLASMAI">      0.00000000</i>
   <v name="DFIELD">      0.00000000      0.00000000      0.00000000</v>
   <v name="WPLASMA">      0.00000000      0.00000000      0.00000000      0.00000000      0.00000000      0.00000000      0.00000000      0.00000000      0.00000000</v>
  </separator>
  <separator name="orbital magnetization" >
   <i type="logical" name="NUCIND"> F  </i>
   <v name="MAGPOS">      0.00000000      0.00000000      0.00000000</v>
   <i type="logical" name="LNICSALL"> T  </i>
   <i type="logical" name="ORBITALMAG"> F  </i>
   <i type="logical" name="LMAGBLOCH"> F  </i>
   <i type="logical" name="LCHIMAG"> F  </i>
   <i type="logical" name="LGAUGE"> T  </i>
   <i type="int" name="MAGATOM">     0</i>
   <v name="MAGDIPOL">      0.00000000      0.00000000      0.00000000</v>
   <v name="AVECCONST">      0.00000000      0.00000000      0.00000000</v>
  </separator>
  <separator name="response functions" >
   <i type="logical" name="LADDER"> F  </i>
   <i type="logical" name="LRPAFORCE"> F  </i>
   <i type="logical" name="LFXC"> F  </i>
   <i type="logical" name="LHARTREE"> T  </i>
   <i type="int" name="IBSE">     0</i>
   <v type="int" name="KPOINT">    -1     0     0     0</v>
   <i type="logical" name="LTCTE"> F  </i>
   <i type="logical" name="LTETE"> F  </i>
   <i type="logical" name="LTRIPLET"> F  </i>
   <i type="logical" name="LFXCEPS"> F  </i>
   <i type="logical" name="LFXHEG"> F  </i>
   <i type="int" name="NATURALO">     2</i>
   <i type="logical" name="L2ORDER"> F  </i>
   <i type="logical" name="LMP2LT"> F  </i>
   <i type="logical" name="LUSEW"> F  </i>
   <i name="ENCUTGW">     -2.00000000</i>
   <i name="ENCUTGWSOFT">     -2.00000000</i>
   <i name="ENCUTLF">     -1.00000000</i>
   <i type="int" name="LMAXMP2">    -1</i>
   <i name="SCISSOR">      0.00000000</i>
   <i type="int" name="NOMEGA">     0</i>
   <i type="int" name="NOMEGAR">     0</i>
   <i type="int" name="NBANDSGW">    -1</i>
   <i type="int" name="NBANDSO">    -1</i>
   <i type="int" name="NBANDSV">    -1</i>
   <i type="int" name="NELM">   100</i>
   <i type="int" name="NELMHF">     1</i>
   <i type="int" name="DIM">     3</i>
   <i type="int" name="ANTIRES">     0</i>
   <i name="OMEGAMAX">    -30.00000000</i>
   <i name="OMEGAMIN">    -30.00000000</i>
   <i name="OMEGATL">   -200.00000000</i>
   <i type="int" name="OMEGAGRID">   140</i>
   <i name="CSHIFT">     -0.10000000</i>
   <i type="logical" name="SELFENERGY"> F  </i>
   <i type="logical" name="LSPECTRAL"> F  </i>
   <i type="logical" name="LSPECTRALGW"> F  </i>
   <i type="logical" name="LSINGLES"> F  </i>
   <i type="logical" name="LFERMIGW"> F  </i>
   <i type="logical" name="ODDONLYGW"> F  </i>
   <i type="logical" name="EVENONLYGW"> F  </i>
   <i type="int" name="NKREDLFX">     1</i>
   <i type="int" name="NKREDLFY">     1</i>
   <i type="int" name="NKREDLFZ">     1</i>
   <i type="int" name="MAXMEM">  2800</i>
   <i type="int" name="TELESCOPE">     0</i>
   <i type="int" name="TAUPAR">     1</i>
   <i type="int" name="OMEGAPAR">    -1</i>
   <i name="LAMBDA">      1.00000000</i>
  </separator>
  <separator name="External order field" >
   <i name="OFIELD_KAPPA">      0.00000000</i>
   <v name="OFIELD_K">      0.00000000      0.00000000      0.00000000</v>
   <i name="OFIELD_Q6_NEAR">      0.00000000</i>
   <i name="OFIELD_Q6_FAR">      0.00000000</i>
   <i name="OFIELD_A">      0.00000000</i>
  </separator>
 </parameters>
 <atominfo>
  <atoms>      12 </atoms>
  <types>       2 </types>
  <array name="atoms" >
   <dimension dim="1">ion</dimension>
   <field type="string">element</field>
   <field type="int">atomtype</field>
   <set>
    <rc><c>Mn</c><c>   1</c></rc>
    <rc><c>Mn</c><c>   1</c></rc>
    <rc><c>Mn</c><c>   1</c></rc>
    <rc><c>Mn</c><c>   1</c></rc>
    <rc><c>O </c><c>   2</c></rc>
    <rc><c>O </c><c>   2</c></rc>
    <rc><c>O </c><c>   2</c></rc>
    <rc><c>O </c><c>   2</c></rc>
    <rc><c>O </c><c>   2</c></rc>
    <rc><c>O </c><c>   2</c></rc>
    <rc><c>O </c><c>   2</c></rc>
    <rc><c>O </c><c>   2</c></rc>
   </set>
  </array>
  <array name="atomtypes" >
   <dimension dim="1">type</dimension>
   <field type="int">atomspertype</field>
   <field type="string">element</field>
   <field>mass</field>
   <field>valence</field>
   <field type="string">pseudopotential</field>
   <set>
    <rc><c>   4</c><c>Mn</c><c>     54.93800000</c><c>     13.00000000</c><c>  PAW_PBE Mn_pv 02Aug2007               </c></rc>
    <rc><c>   8</c><c>O </c><c>     16.00000000</c><c>      6.00000000</c><c>  PAW_PBE O 08Apr2002                   </c></rc>
   </set>
  </array>
 </atominfo>
 <structure name="initialpos" >
  <crystal>
   <varray name="basis" >
    <v>       2.68869742       0.00000957       0.00000270 </v>
    <v>       0.00001584       4.82071855       0.00064811 </v>
    <v>      -0.00000216       0.00141585       9.16357066 </v>
   </varray>
   <i name="volume">    118.77319291 </i>
   <varray name="rec_basis" >
    <v>       0.37192731      -0.00000122       0.00000009 </v>
    <v>      -0.00000074       0.20743796      -0.00003205 </v>
    <v>      -0.00000011      -0.00001467       0.10912777 </v>
   </varray>
  </crystal>
  <varray name="positions" >
   <v>       0.25001214       0.05058768       0.85788433 </v>
   <v>       0.75000301       0.94946367       0.14208785 </v>
   <v>       0.74999694       0.55064186       0.64205703 </v>
   <v>       0.24998612       0.44928551       0.35792477 </v>
   <v>       0.25000058       0.70208253       0.52175077 </v>
   <v>       0.75000967       0.20196863       0.97815658 </v>
   <v>       0.24999658       0.79795356       0.02184509 </v>
   <v>       0.74998868       0.29792779       0.47827449 </v>
   <v>       0.24997290       0.15980014       0.23336640 </v>
   <v>       0.25003248       0.34022316       0.73334707 </v>
   <v>       0.74997299       0.65983019       0.26667731 </v>
   <v>       0.75002789       0.84023629       0.76662929 </v>
  </varray>
 </structure>
 <calculation>
  <scstep>
   <time name="dav">    8.61   11.67</time>
   <time name="total">    9.14   12.22</time>
   <energy>
    <i name="alphaZ">    468.37989816 </i>
    <i name="ewald">  -7440.91207067 </i>
    <i name="hartreedc">  -3665.01809671 </i>
    <i name="XCdc">    495.81303870 </i>
    <i name="pawpsdc">  15034.28397292 </i>
    <i name="pawaedc"> -15277.55670619 </i>
    <i name="eentropy">     -0.00040639 </i>
    <i name="bandstr">  -1224.49716965 </i>
    <i name="atom">  11559.90638050 </i>
    <i name="e_fr_energy">    -49.60115931 </i>
    <i name="e_wo_entrp">    -49.60075293 </i>
    <i name="e_0_energy">    -49.60095612 </i>
   </energy>
  </scstep>
  <scstep>
   <time name="diag">    1.40    1.41</time>
   <time name="diis">    3.40    3.41</time>
   <time name="orth">    0.23    0.23</time>
   <time name="total">    5.52    5.54</time>
   <energy>
    <i name="e_fr_energy">   -111.38727733 </i>
    <i name="e_wo_entrp">   -111.38678636 </i>
    <i name="e_0_energy">   -111.38703185 </i>
   </energy>
  </scstep>
  <scstep>
   <time name="diag">    2.24    2.24</time>
   <time name="diis">    5.31    5.33</time>
   <time name="orth">    0.39    0.40</time>
   <time name="total">    8.65    8.68</time>
   <energy>
    <i name="e_fr_energy">    -93.75943362 </i>
    <i name="e_wo_entrp">    -93.75896734 </i>
    <i name="e_0_energy">    -93.75920048 </i>
   </energy>
  </scstep>
  <scstep>
   <time name="diag">    2.34    2.35</time>
   <time name="diis">    6.30    6.32</time>
   <time name="orth">    0.39    0.40</time>
   <time name="total">    9.89    9.92</time>
   <energy>
    <i name="e_fr_energy">    -98.06810503 </i>
    <i name="e_wo_entrp">    -98.06726273 </i>
    <i name="e_0_energy">    -98.06768388 </i>
   </energy>
  </scstep>
  <scstep>
   <time name="diag">    2.47    2.47</time>
   <time name="diis">    6.02    6.03</time>
   <time name="orth">    0.40    0.40</time>
   <time name="total">    9.75    9.78</time>
   <energy>
    <i name="e_fr_energy">    -99.88035626 </i>
    <i name="e_wo_entrp">    -99.88012130 </i>
    <i name="e_0_energy">    -99.88023878 </i>
   </energy>
  </scstep>
  <scstep>
   <time name="diag">    2.35    2.35</time>
   <time name="diis">    6.56    6.57</time>
   <time name="orth">    0.40    0.40</time>
   <time name="total">   10.05   10.08</time>
   <energy>
    <i name="e_fr_energy">    -97.77971599 </i>
    <i name="e_wo_entrp">    -97.77904988 </i>
    <i name="e_0_energy">    -97.77938294 </i>
   </energy>
  </scstep>
  <scstep>
   <time name="diag">    2.58    2.58</time>
   <time name="diis">    6.18    6.20</time>
   <time name="orth">    0.39    0.39</time>
   <time name="total">    9.89    9.91</time>
   <energy>
    <i name="e_fr_energy">    -92.90965050 </i>
    <i name="e_wo_entrp">    -92.90925016 </i>
    <i name="e_0_energy">    -92.90945033 </i>
   </energy>
  </scstep>
  <scstep>
   <time name="diag">    2.45    2.45</time>
   <time name="diis">    7.44    7.45</time>
   <time name="orth">    0.40    0.40</time>
   <time name="total">   11.14   11.17</time>
   <energy>
    <i name="e_fr_energy">    -93.29016498 </i>
    <i name="e_wo_entrp">    -93.28941576 </i>
    <i name="e_0_energy">    -93.28979037 </i>
   </energy>
  </scstep>
  <scstep>
   <time name="diag">    2.29    2.30</time>
   <time name="diis">    6.26    6.27</time>
   <time name="orth">    0.40    0.41</time>
   <time name="total">    9.69    9.71</time>
   <energy>
    <i name="e_fr_energy">    -92.61293162 </i>
    <i name="e_wo_entrp">    -92.61251209 </i>
    <i name="e_0_energy">    -92.61272186 </i>
   </energy>
  </scstep>
  <scstep>
   <time name="diag">    2.19    2.20</time>
   <time name="diis">    7.08    7.10</time>
   <time name="orth">    0.41    0.41</time>
   <time name="total">   10.54   10.56</time>
   <energy>
    <i name="e_fr_energy">    -92.54041404 </i>
    <i name="e_wo_entrp">    -92.53956504 </i>
    <i name="e_0_energy">    -92.53998954 </i>
   </energy>
  </scstep>
  <scstep>
   <time name="diag">    2.27    2.28</time>
   <time name="diis">    8.17    8.18</time>
   <time name="orth">    0.39    0.39</time>
   <time name="total">   11.54   11.57</time>
   <energy>
    <i name="e_fr_energy">    -92.53356351 </i>
    <i name="e_wo_entrp">    -92.53285337 </i>
    <i name="e_0_energy">    -92.53320844 </i>
   </energy>
  </scstep>
  <scstep>
   <time name="diag">    2.20    2.21</time>
   <time name="diis">    6.44    6.46</time>
   <time name="orth">    0.37    0.37</time>
   <time name="total">    9.71    9.73</time>
   <energy>
    <i name="e_fr_energy">    -92.53841884 </i>
    <i name="e_wo_entrp">    -92.53776675 </i>
    <i name="e_0_energy">    -92.53809279 </i>
   </energy>
  </scstep>
  <scstep>
   <time name="diag">    2.22    2.22</time>
   <time name="diis">    6.92    6.94</time>
   <time name="orth">    0.38    0.38</time>
   <time name="total">   10.21   10.23</time>
   <energy>
    <i name="e_fr_energy">    -92.53336898 </i>
    <i name="e_wo_entrp">    -92.53248730 </i>
    <i name="e_0_energy">    -92.53292814 </i>
   </energy>
  </scstep>
  <scstep>
   <time name="diag">    2.12    2.12</time>
   <time name="diis">    6.62    6.64</time>
   <time name="orth">    0.38    0.38</time>
   <time name="total">    9.84    9.86</time>
   <energy>
    <i name="e_fr_energy">    -92.52837994 </i>
    <i name="e_wo_entrp">    -92.52753597 </i>
    <i name="e_0_energy">    -92.52795796 </i>
   </energy>
  </scstep>
  <scstep>
   <time name="diag">    2.27    2.28</time>
   <time name="diis">    7.55    7.57</time>
   <time name="orth">    0.39    0.39</time>
   <time name="total">   10.91   10.94</time>
   <energy>
    <i name="e_fr_energy">    -92.52770246 </i>
    <i name="e_wo_entrp">    -92.52687514 </i>
    <i name="e_0_energy">    -92.52728880 </i>
   </energy>
  </scstep>
  <scstep>
   <time name="diag">    1.91    2.51</time>
   <time name="diis">    7.07    7.94</time>
   <time name="orth">    0.39    0.39</time>
   <time name="total">   10.07   11.54</time>
   <energy>
    <i name="e_fr_energy">    -92.52770829 </i>
    <i name="e_wo_entrp">    -92.52688533 </i>
    <i name="e_0_energy">    -92.52729681 </i>
   </energy>
  </scstep>
  <scstep>
   <time name="diag">    2.16    2.17</time>
   <time name="diis">    6.83    6.85</time>
   <time name="orth">    0.37    0.37</time>
   <time name="total">   10.06   10.09</time>
   <energy>
    <i name="e_fr_energy">    -92.52770134 </i>
    <i name="e_wo_entrp">    -92.52687930 </i>
    <i name="e_0_energy">    -92.52729032 </i>
   </energy>
  </scstep>
  <scstep>
   <time name="diag">    2.20    2.21</time>
   <time name="diis">    6.62    6.66</time>
   <time name="orth">    0.39    0.39</time>
   <time name="total">    9.93    9.97</time>
   <energy>
    <i name="e_fr_energy">    -92.52769647 </i>
    <i name="e_wo_entrp">    -92.52687481 </i>
    <i name="e_0_energy">    -92.52728564 </i>
   </energy>
  </scstep>
  <scstep>
   <time name="diag">    2.25    2.26</time>
   <time name="diis">    5.73    5.75</time>
   <time name="orth">    0.42    0.42</time>
   <time name="total">    8.58    8.61</time>
   <energy>
    <i name="alphaZ">    468.37989816 </i>
    <i name="ewald">  -7440.91207067 </i>
    <i name="hartreedc">  -3701.53517952 </i>
    <i name="XCdc">    496.86261171 </i>
    <i name="pawpsdc">  12122.92295246 </i>
    <i name="pawaedc"> -12357.89769657 </i>
    <i name="eentropy">     -0.00082155 </i>
    <i name="bandstr">  -1240.25377009 </i>
    <i name="atom">  11559.90638050 </i>
    <i name="e_fr_energy">    -92.52769557 </i>
    <i name="e_wo_entrp">    -92.52687402 </i>
    <i name="e_0_energy">    -92.52728479 </i>
   </energy>
  </scstep>
  <structure>
   <crystal>
    <varray name="basis" >
     <v>       2.68869742       0.00000957       0.00000270 </v>
     <v>       0.00001584       4.82071855       0.00064811 </v>
     <v>      -0.00000216       0.00141585       9.16357066 </v>
    </varray>
    <i name="volume">    118.77319291 </i>
    <varray name="rec_basis" >
     <v>       0.37192731      -0.00000122       0.00000009 </v>
     <v>      -0.00000074       0.20743796      -0.00003205 </v>
     <v>      -0.00000011      -0.00001467       0.10912777 </v>
    </varray>
   </crystal>
   <varray name="positions" >
    <v>       0.25001214       0.05058768       0.85788433 </v>
    <v>       0.75000301       0.94946367       0.14208785 </v>
    <v>       0.74999694       0.55064186       0.64205703 </v>
    <v>       0.24998612       0.44928551       0.35792477 </v>
    <v>       0.25000058       0.70208253       0.52175077 </v>
    <v>       0.75000967       0.20196863       0.97815658 </v>
    <v>       0.24999658       0.79795356       0.02184509 </v>
    <v>       0.74998868       0.29792779       0.47827449 </v>
    <v>       0.24997290       0.15980014       0.23336640 </v>
    <v>       0.25003248       0.34022316       0.73334707 </v>
    <v>       0.74997299       0.65983019       0.26667731 </v>
    <v>       0.75002789       0.84023629       0.76662929 </v>
   </varray>
  </structure>
  <varray name="forces" >
   <v>       0.00015626       0.02046296       0.02324713 </v>
   <v>      -0.00064458      -0.02774576      -0.02189560 </v>
   <v>       0.00070135       0.02838470      -0.01984751 </v>
   <v>      -0.00015239      -0.01663386       0.02297675 </v>
   <v>      -0.00031776      -0.05527090       0.03577783 </v>
   <v>      -0.00021402      -0.04937634      -0.03222630 </v>
   <v>       0.00039059       0.05268462       0.03240273 </v>
   <v>       0.00023649       0.05266400      -0.03943491 </v>
   <v>       0.00048350      -0.00179465       0.01194510 </v>
   <v>      -0.00061649       0.00455671       0.01075886 </v>
   <v>       0.00036830      -0.00849802      -0.01064854 </v>
   <v>      -0.00039124       0.00056654      -0.01305555 </v>
  </varray>
  <varray name="stress" >
   <v>       3.23975064      -0.01035342      -0.00220353 </v>
   <v>      -0.01035309       5.92509178       0.02388687 </v>
   <v>      -0.00220363       0.02388695      -3.41763069 </v>
  </varray>
  <energy>
   <i name="e_fr_energy">    -92.52769557 </i>
   <i name="e_wo_entrp">    -92.52728479 </i>
   <i name="e_0_energy">     -0.00082155 </i>
  </energy>
  <time name="totalsc">  194.53  199.82</time>
  <eigenvalues>
   <array>
    <dimension dim="1">band</dimension>
    <dimension dim="2">kpoint</dimension>
    <dimension dim="3">spin</dimension>
    <field>eigene</field>
    <field>occ</field>
    <set>
     <set comment="spin 1">
      <set comment="kpoint 1">
       <r>  -44.3840    1.0000 </r>
       <r>  -44.3833    1.0000 </r>
       <r>  -44.3832    1.0000 </r>
       <r>  -44.3676    1.0000 </r>
       <r>  -44.3303    1.0000 </r>
       <r>  -44.3214    1.0000 </r>
       <r>  -44.3045    1.0000 </r>
       <r>  -44.2997    1.0000 </r>
       <r>  -44.2943    1.0000 </r>
       <r>  -44.2895    1.0000 </r>
       <r>  -44.2808    1.0000 </r>
       <r>  -44.2730    1.0000 </r>
       <r>  -15.6642    1.0000 </r>
       <r>  -14.9970    1.0000 </r>
       <r>  -14.8171    1.0000 </r>
       <r>  -14.2110    1.0000 </r>
       <r>  -14.0683    1.0000 </r>
       <r>  -13.8113    1.0000 </r>
       <r>  -13.2551    1.0000 </r>
       <r>  -13.2186    1.0000 </r>
       <r>   -3.1103    1.0000 </r>
       <r>   -2.3863    1.0000 </r>
       <r>   -2.1684    1.0000 </r>
       <r>   -2.0392    1.0000 </r>
       <r>   -1.4675    1.0000 </r>
       <r>   -1.3104    1.0000 </r>
       <r>   -1.1709    1.0000 </r>
       <r>   -0.4955    1.0000 </r>
       <r>   -0.4902    1.0000 </r>
       <r>   -0.4243    1.0000 </r>
       <r>   -0.3771    1.0000 </r>
       <r>   -0.1854    1.0000 </r>
       <r>    0.0444    1.0000 </r>
       <r>    0.5950    1.0000 </r>
       <r>    0.8425    1.0000 </r>
       <r>    1.1115    1.0000 </r>
       <r>    1.5372    1.0000 </r>
       <r>    1.6059    1.0000 </r>
       <r>    1.9840    1.0000 </r>
       <r>    2.2879    1.0000 </r>
       <r>    2.5312    1.0000 </r>
       <r>    2.6334    1.0000 </r>
       <r>    2.7673    1.0000 </r>
       <r>    2.9126    1.0000 </r>
       <r>    3.5757    1.0000 </r>
       <r>    3.9141    1.0000 </r>
       <r>    3.9328    1.0000 </r>
       <r>    4.0254    1.0000 </r>
       <r>    4.0643    1.0000 </r>
       <r>    4.2457    1.0000 </r>
       <r>    4.4057    1.0000 </r>
       <r>    4.4868    1.0000 </r>
       <r>    4.6771    0.0000 </r>
       <r>    5.1753    0.0000 </r>
       <r>    5.4858    0.0000 </r>
       <r>    5.8814    0.0000 </r>
       <r>    6.1866    0.0000 </r>
       <r>    7.0399    0.0000 </r>
       <r>    7.4142    0.0000 </r>
       <r>    7.4807    0.0000 </r>
      </set>
      <set comment="kpoint 2">
       <r>  -44.3810    1.0000 </r>
       <r>  -44.3803    1.0000 </r>
       <r>  -44.3797    1.0000 </r>
       <r>  -44.3654    1.0000 </r>
       <r>  -44.3311    1.0000 </r>
       <r>  -44.3211    1.0000 </r>
       <r>  -44.3208    1.0000 </r>
       <r>  -44.3174    1.0000 </r>
       <r>  -44.3078    1.0000 </r>
       <r>  -44.3056    1.0000 </r>
       <r>  -44.2792    1.0000 </r>
       <r>  -44.2726    1.0000 </r>
       <r>  -15.5735    1.0000 </r>
       <r>  -14.9357    1.0000 </r>
       <r>  -14.7405    1.0000 </r>
       <r>  -14.1846    1.0000 </r>
       <r>  -14.0643    1.0000 </r>
       <r>  -13.8057    1.0000 </r>
       <r>  -13.2470    1.0000 </r>
       <r>  -13.2187    1.0000 </r>
       <r>   -2.9890    1.0000 </r>
       <r>   -2.3126    1.0000 </r>
       <r>   -2.0975    1.0000 </r>
       <r>   -1.9637    1.0000 </r>
       <r>   -1.3808    1.0000 </r>
       <r>   -1.3792    1.0000 </r>
       <r>   -1.2930    1.0000 </r>
       <r>   -0.8013    1.0000 </r>
       <r>   -0.6748    1.0000 </r>
       <r>   -0.4459    1.0000 </r>
       <r>   -0.3312    1.0000 </r>
       <r>   -0.0516    1.0000 </r>
       <r>    0.4215    1.0000 </r>
       <r>    0.5927    1.0000 </r>
       <r>    0.7278    1.0000 </r>
       <r>    0.8665    1.0000 </r>
       <r>    1.0374    1.0000 </r>
       <r>    1.8171    1.0000 </r>
       <r>    1.8621    1.0000 </r>
       <r>    2.1276    1.0000 </r>
       <r>    2.1781    1.0000 </r>
       <r>    2.4534    1.0000 </r>
       <r>    2.7930    1.0000 </r>
       <r>    3.0474    1.0000 </r>
       <r>    3.5489    1.0000 </r>
       <r>    3.9132    1.0000 </r>
       <r>    3.9249    1.0000 </r>
       <r>    4.0364    1.0000 </r>
       <r>    4.1221    1.0000 </r>
       <r>    4.4079    1.0000 </r>
       <r>    4.4135    1.0000 </r>
       <r>    4.4594    1.0000 </r>
       <r>    4.8677    0.0000 </r>
       <r>    5.2603    0.0000 </r>
       <r>    5.5011    0.0000 </r>
       <r>    5.8767    0.0000 </r>
       <r>    6.2637    0.0000 </r>
       <r>    6.9698    0.0000 </r>
       <r>    7.2586    0.0000 </r>
       <r>    7.4313    0.0000 </r>
      </set>
      <set comment="kpoint 3">
       <r>  -44.3738    1.0000 </r>
       <r>  -44.3735    1.0000 </r>
       <r>  -44.3716    1.0000 </r>
       <r>  -44.3655    1.0000 </r>
       <r>  -44.3648    1.0000 </r>
       <r>  -44.3604    1.0000 </r>
       <r>  -44.3564    1.0000 </r>
       <r>  -44.3526    1.0000 </r>
       <r>  -44.3152    1.0000 </r>
       <r>  -44.3139    1.0000 </r>
       <r>  -44.2772    1.0000 </r>
       <r>  -44.2721    1.0000 </r>
       <r>  -15.3165    1.0000 </r>
       <r>  -14.7694    1.0000 </r>
       <r>  -14.5255    1.0000 </r>
       <r>  -14.1195    1.0000 </r>
       <r>  -14.0549    1.0000 </r>
       <r>  -13.7893    1.0000 </r>
       <r>  -13.2293    1.0000 </r>
       <r>  -13.2211    1.0000 </r>
       <r>   -2.6582    1.0000 </r>
       <r>   -2.1534    1.0000 </r>
       <r>   -1.9270    1.0000 </r>
       <r>   -1.8021    1.0000 </r>
       <r>   -1.5409    1.0000 </r>
       <r>   -1.5332    1.0000 </r>
       <r>   -1.1842    1.0000 </r>
       <r>   -1.1364    1.0000 </r>
       <r>   -0.8226    1.0000 </r>
       <r>   -0.3502    1.0000 </r>
       <r>   -0.2541    1.0000 </r>
       <r>   -0.1352    1.0000 </r>
       <r>   -0.0722    1.0000 </r>
       <r>    0.2000    1.0000 </r>
       <r>    0.8549    1.0000 </r>
       <r>    0.8690    1.0000 </r>
       <r>    0.9034    1.0000 </r>
       <r>    1.2044    1.0000 </r>
       <r>    1.4415    1.0000 </r>
       <r>    1.6961    1.0000 </r>
       <r>    2.2198    1.0000 </r>
       <r>    2.2596    1.0000 </r>
       <r>    2.4074    1.0000 </r>
       <r>    3.2341    1.0000 </r>
       <r>    3.6373    1.0000 </r>
       <r>    3.8108    1.0000 </r>
       <r>    4.0511    1.0000 </r>
       <r>    4.0960    1.0000 </r>
       <r>    4.2396    1.0000 </r>
       <r>    4.3283    1.0000 </r>
       <r>    4.5007    1.0000 </r>
       <r>    4.6630    0.0000 </r>
       <r>    5.1756    0.0000 </r>
       <r>    5.4211    0.0000 </r>
       <r>    5.5457    0.0000 </r>
       <r>    5.8340    0.0000 </r>
       <r>    6.4567    0.0000 </r>
       <r>    6.7211    0.0000 </r>
       <r>    6.8749    0.0000 </r>
       <r>    7.3401    0.0000 </r>
      </set>
      <set comment="kpoint 4">
       <r>  -44.4229    1.0000 </r>
       <r>  -44.4219    1.0000 </r>
       <r>  -44.4205    1.0000 </r>
       <r>  -44.4145    1.0000 </r>
       <r>  -44.3616    1.0000 </r>
       <r>  -44.3602    1.0000 </r>
       <r>  -44.3569    1.0000 </r>
       <r>  -44.3507    1.0000 </r>
       <r>  -44.3075    1.0000 </r>
       <r>  -44.3070    1.0000 </r>
       <r>  -44.2760    1.0000 </r>
       <r>  -44.2726    1.0000 </r>
       <r>  -14.9392    1.0000 </r>
       <r>  -14.5471    1.0000 </r>
       <r>  -14.2186    1.0000 </r>
       <r>  -14.0504    1.0000 </r>
       <r>  -14.0435    1.0000 </r>
       <r>  -13.7605    1.0000 </r>
       <r>  -13.2332    1.0000 </r>
       <r>  -13.2259    1.0000 </r>
       <r>   -2.2375    1.0000 </r>
       <r>   -2.0213    1.0000 </r>
       <r>   -1.8255    1.0000 </r>
       <r>   -1.8250    1.0000 </r>
       <r>   -1.6356    1.0000 </r>
       <r>   -1.6280    1.0000 </r>
       <r>   -1.2720    1.0000 </r>
       <r>   -1.1592    1.0000 </r>
       <r>   -1.1180    1.0000 </r>
       <r>   -0.7235    1.0000 </r>
       <r>   -0.6369    1.0000 </r>
       <r>   -0.1175    1.0000 </r>
       <r>    0.0804    1.0000 </r>
       <r>    0.1414    1.0000 </r>
       <r>    0.4050    1.0000 </r>
       <r>    0.6223    1.0000 </r>
       <r>    1.0073    1.0000 </r>
       <r>    1.0578    1.0000 </r>
       <r>    1.1111    1.0000 </r>
       <r>    1.1633    1.0000 </r>
       <r>    2.0153    1.0000 </r>
       <r>    2.0264    1.0000 </r>
       <r>    2.3953    1.0000 </r>
       <r>    2.8536    1.0000 </r>
       <r>    3.6754    1.0000 </r>
       <r>    3.9911    1.0000 </r>
       <r>    4.0824    1.0000 </r>
       <r>    4.2370    1.0000 </r>
       <r>    4.3228    1.0000 </r>
       <r>    4.3743    1.0000 </r>
       <r>    4.6497    0.0127 </r>
       <r>    4.6885    0.0000 </r>
       <r>    5.4173    0.0000 </r>
       <r>    5.5198    0.0000 </r>
       <r>    5.6135    0.0000 </r>
       <r>    5.7200    0.0000 </r>
       <r>    6.5265    0.0000 </r>
       <r>    6.6275    0.0000 </r>
       <r>    6.6281    0.0000 </r>
       <r>    7.1910    0.0000 </r>
      </set>
      <set comment="kpoint 5">
       <r>  -44.4750    1.0000 </r>
       <r>  -44.4748    1.0000 </r>
       <r>  -44.4738    1.0000 </r>
       <r>  -44.4694    1.0000 </r>
       <r>  -44.3507    1.0000 </r>
       <r>  -44.3499    1.0000 </r>
       <r>  -44.3463    1.0000 </r>
       <r>  -44.3440    1.0000 </r>
       <r>  -44.2992    1.0000 </r>
       <r>  -44.2966    1.0000 </r>
       <r>  -44.2766    1.0000 </r>
       <r>  -44.2755    1.0000 </r>
       <r>  -14.5237    1.0000 </r>
       <r>  -14.3339    1.0000 </r>
       <r>  -14.0643    1.0000 </r>
       <r>  -14.0128    1.0000 </r>
       <r>  -13.8621    1.0000 </r>
       <r>  -13.7079    1.0000 </r>
       <r>  -13.2790    1.0000 </r>
       <r>  -13.2721    1.0000 </r>
       <r>   -2.2009    1.0000 </r>
       <r>   -1.9694    1.0000 </r>
       <r>   -1.9186    1.0000 </r>
       <r>   -1.8286    1.0000 </r>
       <r>   -1.8089    1.0000 </r>
       <r>   -1.6244    1.0000 </r>
       <r>   -1.5429    1.0000 </r>
       <r>   -1.4620    1.0000 </r>
       <r>   -1.1512    1.0000 </r>
       <r>   -1.0798    1.0000 </r>
       <r>   -0.3528    1.0000 </r>
       <r>   -0.1470    1.0000 </r>
       <r>    0.0422    1.0000 </r>
       <r>    0.2564    1.0000 </r>
       <r>    0.3610    1.0000 </r>
       <r>    0.3783    1.0000 </r>
       <r>    0.7096    1.0000 </r>
       <r>    1.0400    1.0000 </r>
       <r>    1.1140    1.0000 </r>
       <r>    1.2455    1.0000 </r>
       <r>    1.6623    1.0000 </r>
       <r>    1.8671    1.0000 </r>
       <r>    2.2030    1.0000 </r>
       <r>    2.3931    1.0000 </r>
       <r>    3.7810    1.0000 </r>
       <r>    3.8725    1.0000 </r>
       <r>    3.9640    1.0000 </r>
       <r>    4.3805    1.0000 </r>
       <r>    4.6094    0.9997 </r>
       <r>    4.6400    0.1959 </r>
       <r>    4.6632    0.0000 </r>
       <r>    4.7723    0.0000 </r>
       <r>    5.4837    0.0000 </r>
       <r>    5.4935    0.0000 </r>
       <r>    5.5177    0.0000 </r>
       <r>    5.6156    0.0000 </r>
       <r>    6.4934    0.0000 </r>
       <r>    6.5358    0.0000 </r>
       <r>    6.7422    0.0000 </r>
       <r>    7.1295    0.0000 </r>
      </set>
      <set comment="kpoint 6">
       <r>  -44.5063    1.0000 </r>
       <r>  -44.5057    1.0000 </r>
       <r>  -44.5046    1.0000 </r>
       <r>  -44.5027    1.0000 </r>
       <r>  -44.3431    1.0000 </r>
       <r>  -44.3428    1.0000 </r>
       <r>  -44.3412    1.0000 </r>
       <r>  -44.3408    1.0000 </r>
       <r>  -44.2899    1.0000 </r>
       <r>  -44.2871    1.0000 </r>
       <r>  -44.2814    1.0000 </r>
       <r>  -44.2802    1.0000 </r>
       <r>  -14.1923    1.0000 </r>
       <r>  -14.1798    1.0000 </r>
       <r>  -14.0952    1.0000 </r>
       <r>  -14.0394    1.0000 </r>
       <r>  -13.5967    1.0000 </r>
       <r>  -13.5695    1.0000 </r>
       <r>  -13.4194    1.0000 </r>
       <r>  -13.3716    1.0000 </r>
       <r>   -2.4730    1.0000 </r>
       <r>   -2.3529    1.0000 </r>
       <r>   -1.9407    1.0000 </r>
       <r>   -1.8757    1.0000 </r>
       <r>   -1.6920    1.0000 </r>
       <r>   -1.5847    1.0000 </r>
       <r>   -1.5228    1.0000 </r>
       <r>   -1.4815    1.0000 </r>
       <r>   -1.1674    1.0000 </r>
       <r>   -0.8700    1.0000 </r>
       <r>   -0.8604    1.0000 </r>
       <r>   -0.4491    1.0000 </r>
       <r>    0.0983    1.0000 </r>
       <r>    0.1864    1.0000 </r>
       <r>    0.5430    1.0000 </r>
       <r>    0.8074    1.0000 </r>
       <r>    0.9928    1.0000 </r>
       <r>    1.1540    1.0000 </r>
       <r>    1.1738    1.0000 </r>
       <r>    1.2115    1.0000 </r>
       <r>    1.2848    1.0000 </r>
       <r>    1.5701    1.0000 </r>
       <r>    1.9102    1.0000 </r>
       <r>    2.1848    1.0000 </r>
       <r>    3.6971    1.0000 </r>
       <r>    3.7893    1.0000 </r>
       <r>    4.1138    1.0000 </r>
       <r>    4.3019    1.0000 </r>
       <r>    4.7905    0.0000 </r>
       <r>    4.8354    0.0000 </r>
       <r>    4.8947    0.0000 </r>
       <r>    4.9086    0.0000 </r>
       <r>    5.3232    0.0000 </r>
       <r>    5.3611    0.0000 </r>
       <r>    5.3959    0.0000 </r>
       <r>    5.4940    0.0000 </r>
       <r>    6.5125    0.0000 </r>
       <r>    6.5152    0.0000 </r>
       <r>    6.8659    0.0000 </r>
       <r>    7.0027    0.0000 </r>
      </set>
      <set comment="kpoint 7">
       <r>  -44.3851    1.0000 </r>
       <r>  -44.3835    1.0000 </r>
       <r>  -44.3813    1.0000 </r>
       <r>  -44.3686    1.0000 </r>
       <r>  -44.3297    1.0000 </r>
       <r>  -44.3221    1.0000 </r>
       <r>  -44.3042    1.0000 </r>
       <r>  -44.3001    1.0000 </r>
       <r>  -44.2939    1.0000 </r>
       <r>  -44.2898    1.0000 </r>
       <r>  -44.2800    1.0000 </r>
       <r>  -44.2733    1.0000 </r>
       <r>  -15.6059    1.0000 </r>
       <r>  -14.9486    1.0000 </r>
       <r>  -14.8670    1.0000 </r>
       <r>  -14.2676    1.0000 </r>
       <r>  -14.0468    1.0000 </r>
       <r>  -13.8157    1.0000 </r>
       <r>  -13.2769    1.0000 </r>
       <r>  -13.2459    1.0000 </r>
       <r>   -3.0525    1.0000 </r>
       <r>   -2.2770    1.0000 </r>
       <r>   -2.2284    1.0000 </r>
       <r>   -2.0746    1.0000 </r>
       <r>   -1.5621    1.0000 </r>
       <r>   -1.1361    1.0000 </r>
       <r>   -1.1164    1.0000 </r>
       <r>   -0.4883    1.0000 </r>
       <r>   -0.4478    1.0000 </r>
       <r>   -0.3750    1.0000 </r>
       <r>   -0.3496    1.0000 </r>
       <r>   -0.2003    1.0000 </r>
       <r>   -0.0011    1.0000 </r>
       <r>    0.7090    1.0000 </r>
       <r>    0.8978    1.0000 </r>
       <r>    1.1348    1.0000 </r>
       <r>    1.4856    1.0000 </r>
       <r>    1.5538    1.0000 </r>
       <r>    1.7651    1.0000 </r>
       <r>    2.2540    1.0000 </r>
       <r>    2.3554    1.0000 </r>
       <r>    2.6129    1.0000 </r>
       <r>    2.7294    1.0000 </r>
       <r>    2.7467    1.0000 </r>
       <r>    3.6400    1.0000 </r>
       <r>    3.8868    1.0000 </r>
       <r>    3.9575    1.0000 </r>
       <r>    3.9623    1.0000 </r>
       <r>    4.1687    1.0000 </r>
       <r>    4.2614    1.0000 </r>
       <r>    4.4372    1.0000 </r>
       <r>    4.4591    1.0000 </r>
       <r>    4.8722    0.0000 </r>
       <r>    5.1325    0.0000 </r>
       <r>    5.4054    0.0000 </r>
       <r>    5.8528    0.0000 </r>
       <r>    6.2774    0.0000 </r>
       <r>    7.1359    0.0000 </r>
       <r>    7.4082    0.0000 </r>
       <r>    7.4820    0.0000 </r>
      </set>
      <set comment="kpoint 8">
       <r>  -44.3820    1.0000 </r>
       <r>  -44.3801    1.0000 </r>
       <r>  -44.3785    1.0000 </r>
       <r>  -44.3663    1.0000 </r>
       <r>  -44.3305    1.0000 </r>
       <r>  -44.3219    1.0000 </r>
       <r>  -44.3208    1.0000 </r>
       <r>  -44.3172    1.0000 </r>
       <r>  -44.3077    1.0000 </r>
       <r>  -44.3057    1.0000 </r>
       <r>  -44.2786    1.0000 </r>
       <r>  -44.2729    1.0000 </r>
       <r>  -15.5165    1.0000 </r>
       <r>  -14.8891    1.0000 </r>
       <r>  -14.7904    1.0000 </r>
       <r>  -14.2380    1.0000 </r>
       <r>  -14.0418    1.0000 </r>
       <r>  -13.8102    1.0000 </r>
       <r>  -13.2686    1.0000 </r>
       <r>  -13.2445    1.0000 </r>
       <r>   -2.9356    1.0000 </r>
       <r>   -2.2118    1.0000 </r>
       <r>   -2.1601    1.0000 </r>
       <r>   -1.9976    1.0000 </r>
       <r>   -1.5357    1.0000 </r>
       <r>   -1.2727    1.0000 </r>
       <r>   -1.1096    1.0000 </r>
       <r>   -0.7954    1.0000 </r>
       <r>   -0.7660    1.0000 </r>
       <r>   -0.3282    1.0000 </r>
       <r>   -0.3089    1.0000 </r>
       <r>    0.0166    1.0000 </r>
       <r>    0.3451    1.0000 </r>
       <r>    0.5943    1.0000 </r>
       <r>    0.8751    1.0000 </r>
       <r>    0.8799    1.0000 </r>
       <r>    1.0526    1.0000 </r>
       <r>    1.6868    1.0000 </r>
       <r>    1.8297    1.0000 </r>
       <r>    1.9761    1.0000 </r>
       <r>    2.1646    1.0000 </r>
       <r>    2.4556    1.0000 </r>
       <r>    2.5025    1.0000 </r>
       <r>    2.9291    1.0000 </r>
       <r>    3.6315    1.0000 </r>
       <r>    3.9121    1.0000 </r>
       <r>    3.9333    1.0000 </r>
       <r>    4.1313    1.0000 </r>
       <r>    4.1356    1.0000 </r>
       <r>    4.2920    1.0000 </r>
       <r>    4.5365    1.0000 </r>
       <r>    4.5537    1.0000 </r>
       <r>    4.9313    0.0000 </r>
       <r>    5.2228    0.0000 </r>
       <r>    5.4159    0.0000 </r>
       <r>    5.8491    0.0000 </r>
       <r>    6.3459    0.0000 </r>
       <r>    7.0326    0.0000 </r>
       <r>    7.2342    0.0000 </r>
       <r>    7.4595    0.0000 </r>
      </set>
      <set comment="kpoint 9">
       <r>  -44.3742    1.0000 </r>
       <r>  -44.3726    1.0000 </r>
       <r>  -44.3719    1.0000 </r>
       <r>  -44.3660    1.0000 </r>
       <r>  -44.3646    1.0000 </r>
       <r>  -44.3595    1.0000 </r>
       <r>  -44.3576    1.0000 </r>
       <r>  -44.3525    1.0000 </r>
       <r>  -44.3151    1.0000 </r>
       <r>  -44.3140    1.0000 </r>
       <r>  -44.2768    1.0000 </r>
       <r>  -44.2723    1.0000 </r>
       <r>  -15.2636    1.0000 </r>
       <r>  -14.7281    1.0000 </r>
       <r>  -14.5771    1.0000 </r>
       <r>  -14.1642    1.0000 </r>
       <r>  -14.0278    1.0000 </r>
       <r>  -13.7937    1.0000 </r>
       <r>  -13.2498    1.0000 </r>
       <r>  -13.2427    1.0000 </r>
       <r>   -2.6218    1.0000 </r>
       <r>   -2.0795    1.0000 </r>
       <r>   -2.0068    1.0000 </r>
       <r>   -1.8224    1.0000 </r>
       <r>   -1.5729    1.0000 </r>
       <r>   -1.5296    1.0000 </r>
       <r>   -1.1687    1.0000 </r>
       <r>   -1.0331    1.0000 </r>
       <r>   -0.9267    1.0000 </r>
       <r>   -0.3658    1.0000 </r>
       <r>   -0.1922    1.0000 </r>
       <r>   -0.0309    1.0000 </r>
       <r>    0.0375    1.0000 </r>
       <r>    0.2736    1.0000 </r>
       <r>    0.6710    1.0000 </r>
       <r>    0.8935    1.0000 </r>
       <r>    1.0625    1.0000 </r>
       <r>    1.1721    1.0000 </r>
       <r>    1.3932    1.0000 </r>
       <r>    1.7298    1.0000 </r>
       <r>    1.9711    1.0000 </r>
       <r>    2.2620    1.0000 </r>
       <r>    2.2823    1.0000 </r>
       <r>    3.0711    1.0000 </r>
       <r>    3.7202    1.0000 </r>
       <r>    3.8890    1.0000 </r>
       <r>    4.0507    1.0000 </r>
       <r>    4.0656    1.0000 </r>
       <r>    4.3289    1.0000 </r>
       <r>    4.4502    1.0000 </r>
       <r>    4.5037    1.0000 </r>
       <r>    4.6859    0.0000 </r>
       <r>    5.1320    0.0000 </r>
       <r>    5.4147    0.0000 </r>
       <r>    5.4546    0.0000 </r>
       <r>    5.7962    0.0000 </r>
       <r>    6.5310    0.0000 </r>
       <r>    6.7681    0.0000 </r>
       <r>    6.8274    0.0000 </r>
       <r>    7.3320    0.0000 </r>
      </set>
      <set comment="kpoint 10">
       <r>  -44.4229    1.0000 </r>
       <r>  -44.4220    1.0000 </r>
       <r>  -44.4201    1.0000 </r>
       <r>  -44.4149    1.0000 </r>
       <r>  -44.3617    1.0000 </r>
       <r>  -44.3592    1.0000 </r>
       <r>  -44.3574    1.0000 </r>
       <r>  -44.3511    1.0000 </r>
       <r>  -44.3075    1.0000 </r>
       <r>  -44.3070    1.0000 </r>
       <r>  -44.2757    1.0000 </r>
       <r>  -44.2728    1.0000 </r>
       <r>  -14.8944    1.0000 </r>
       <r>  -14.5145    1.0000 </r>
       <r>  -14.2829    1.0000 </r>
       <r>  -14.0835    1.0000 </r>
       <r>  -13.9984    1.0000 </r>
       <r>  -13.7646    1.0000 </r>
       <r>  -13.2488    1.0000 </r>
       <r>  -13.2424    1.0000 </r>
       <r>   -2.2457    1.0000 </r>
       <r>   -1.9689    1.0000 </r>
       <r>   -1.9616    1.0000 </r>
       <r>   -1.7625    1.0000 </r>
       <r>   -1.6521    1.0000 </r>
       <r>   -1.6500    1.0000 </r>
       <r>   -1.3031    1.0000 </r>
       <r>   -1.2921    1.0000 </r>
       <r>   -1.0567    1.0000 </r>
       <r>   -0.6296    1.0000 </r>
       <r>   -0.5027    1.0000 </r>
       <r>   -0.2292    1.0000 </r>
       <r>    0.1414    1.0000 </r>
       <r>    0.2845    1.0000 </r>
       <r>    0.4360    1.0000 </r>
       <r>    0.6233    1.0000 </r>
       <r>    0.9151    1.0000 </r>
       <r>    0.9986    1.0000 </r>
       <r>    1.1799    1.0000 </r>
       <r>    1.2370    1.0000 </r>
       <r>    1.7185    1.0000 </r>
       <r>    2.1111    1.0000 </r>
       <r>    2.4279    1.0000 </r>
       <r>    2.8369    1.0000 </r>
       <r>    3.7430    1.0000 </r>
       <r>    3.9889    1.0000 </r>
       <r>    4.0683    1.0000 </r>
       <r>    4.2617    1.0000 </r>
       <r>    4.3797    1.0000 </r>
       <r>    4.4715    1.0000 </r>
       <r>    4.6098    0.9997 </r>
       <r>    4.7314    0.0000 </r>
       <r>    5.2907    0.0000 </r>
       <r>    5.5215    0.0000 </r>
       <r>    5.5588    0.0000 </r>
       <r>    5.6550    0.0000 </r>
       <r>    6.5659    0.0000 </r>
       <r>    6.5847    0.0000 </r>
       <r>    6.7194    0.0000 </r>
       <r>    7.1859    0.0000 </r>
      </set>
      <set comment="kpoint 11">
       <r>  -44.4750    1.0000 </r>
       <r>  -44.4748    1.0000 </r>
       <r>  -44.4735    1.0000 </r>
       <r>  -44.4697    1.0000 </r>
       <r>  -44.3506    1.0000 </r>
       <r>  -44.3493    1.0000 </r>
       <r>  -44.3467    1.0000 </r>
       <r>  -44.3442    1.0000 </r>
       <r>  -44.2990    1.0000 </r>
       <r>  -44.2968    1.0000 </r>
       <r>  -44.2765    1.0000 </r>
       <r>  -44.2755    1.0000 </r>
       <r>  -14.4923    1.0000 </r>
       <r>  -14.3118    1.0000 </r>
       <r>  -14.0945    1.0000 </r>
       <r>  -14.0341    1.0000 </r>
       <r>  -13.8443    1.0000 </r>
       <r>  -13.7106    1.0000 </r>
       <r>  -13.2871    1.0000 </r>
       <r>  -13.2815    1.0000 </r>
       <r>   -2.2312    1.0000 </r>
       <r>   -2.0139    1.0000 </r>
       <r>   -1.9176    1.0000 </r>
       <r>   -1.8546    1.0000 </r>
       <r>   -1.8519    1.0000 </r>
       <r>   -1.6135    1.0000 </r>
       <r>   -1.5814    1.0000 </r>
       <r>   -1.4880    1.0000 </r>
       <r>   -1.1173    1.0000 </r>
       <r>   -1.1051    1.0000 </r>
       <r>   -0.3523    1.0000 </r>
       <r>   -0.0946    1.0000 </r>
       <r>    0.0569    1.0000 </r>
       <r>    0.1707    1.0000 </r>
       <r>    0.4007    1.0000 </r>
       <r>    0.5267    1.0000 </r>
       <r>    0.7851    1.0000 </r>
       <r>    0.9122    1.0000 </r>
       <r>    1.1712    1.0000 </r>
       <r>    1.2254    1.0000 </r>
       <r>    1.6021    1.0000 </r>
       <r>    1.9000    1.0000 </r>
       <r>    2.3457    1.0000 </r>
       <r>    2.4319    1.0000 </r>
       <r>    3.7851    1.0000 </r>
       <r>    3.9591    1.0000 </r>
       <r>    3.9640    1.0000 </r>
       <r>    4.4009    1.0000 </r>
       <r>    4.6144    0.9971 </r>
       <r>    4.6473    0.0292 </r>
       <r>    4.6592    0.0002 </r>
       <r>    4.7879    0.0000 </r>
       <r>    5.3070    0.0000 </r>
       <r>    5.4366    0.0000 </r>
       <r>    5.5322    0.0000 </r>
       <r>    5.5568    0.0000 </r>
       <r>    6.4980    0.0000 </r>
       <r>    6.5568    0.0000 </r>
       <r>    6.8261    0.0000 </r>
       <r>    7.1344    0.0000 </r>
      </set>
      <set comment="kpoint 12">
       <r>  -44.5062    1.0000 </r>
       <r>  -44.5056    1.0000 </r>
       <r>  -44.5047    1.0000 </r>
       <r>  -44.5029    1.0000 </r>
       <r>  -44.3430    1.0000 </r>
       <r>  -44.3426    1.0000 </r>
       <r>  -44.3414    1.0000 </r>
       <r>  -44.3408    1.0000 </r>
       <r>  -44.2898    1.0000 </r>
       <r>  -44.2874    1.0000 </r>
       <r>  -44.2813    1.0000 </r>
       <r>  -44.2803    1.0000 </r>
       <r>  -14.1878    1.0000 </r>
       <r>  -14.1623    1.0000 </r>
       <r>  -14.0980    1.0000 </r>
       <r>  -14.0457    1.0000 </r>
       <r>  -13.5955    1.0000 </r>
       <r>  -13.5733    1.0000 </r>
       <r>  -13.4175    1.0000 </r>
       <r>  -13.3768    1.0000 </r>
       <r>   -2.4845    1.0000 </r>
       <r>   -2.3739    1.0000 </r>
       <r>   -1.9324    1.0000 </r>
       <r>   -1.8783    1.0000 </r>
       <r>   -1.7775    1.0000 </r>
       <r>   -1.6616    1.0000 </r>
       <r>   -1.5206    1.0000 </r>
       <r>   -1.5137    1.0000 </r>
       <r>   -1.1856    1.0000 </r>
       <r>   -1.0879    1.0000 </r>
       <r>   -0.6784    1.0000 </r>
       <r>   -0.4435    1.0000 </r>
       <r>    0.1542    1.0000 </r>
       <r>    0.2228    1.0000 </r>
       <r>    0.6379    1.0000 </r>
       <r>    0.6842    1.0000 </r>
       <r>    0.9444    1.0000 </r>
       <r>    1.0316    1.0000 </r>
       <r>    1.1207    1.0000 </r>
       <r>    1.2855    1.0000 </r>
       <r>    1.4654    1.0000 </r>
       <r>    1.7667    1.0000 </r>
       <r>    2.0105    1.0000 </r>
       <r>    2.2417    1.0000 </r>
       <r>    3.7363    1.0000 </r>
       <r>    3.8032    1.0000 </r>
       <r>    4.1410    1.0000 </r>
       <r>    4.3292    1.0000 </r>
       <r>    4.7902    0.0000 </r>
       <r>    4.8241    0.0000 </r>
       <r>    4.8863    0.0000 </r>
       <r>    4.8959    0.0000 </r>
       <r>    5.2077    0.0000 </r>
       <r>    5.2388    0.0000 </r>
       <r>    5.4240    0.0000 </r>
       <r>    5.4355    0.0000 </r>
       <r>    6.5227    0.0000 </r>
       <r>    6.5552    0.0000 </r>
       <r>    6.9350    0.0000 </r>
       <r>    7.0462    0.0000 </r>
      </set>
      <set comment="kpoint 13">
       <r>  -44.5062    1.0000 </r>
       <r>  -44.5056    1.0000 </r>
       <r>  -44.5047    1.0000 </r>
       <r>  -44.5029    1.0000 </r>
       <r>  -44.3430    1.0000 </r>
       <r>  -44.3425    1.0000 </r>
       <r>  -44.3414    1.0000 </r>
       <r>  -44.3408    1.0000 </r>
       <r>  -44.2898    1.0000 </r>
       <r>  -44.2874    1.0000 </r>
       <r>  -44.2813    1.0000 </r>
       <r>  -44.2803    1.0000 </r>
       <r>  -14.1878    1.0000 </r>
       <r>  -14.1623    1.0000 </r>
       <r>  -14.0980    1.0000 </r>
       <r>  -14.0457    1.0000 </r>
       <r>  -13.5955    1.0000 </r>
       <r>  -13.5733    1.0000 </r>
       <r>  -13.4176    1.0000 </r>
       <r>  -13.3768    1.0000 </r>
       <r>   -2.4844    1.0000 </r>
       <r>   -2.3739    1.0000 </r>
       <r>   -1.9324    1.0000 </r>
       <r>   -1.8783    1.0000 </r>
       <r>   -1.7776    1.0000 </r>
       <r>   -1.6616    1.0000 </r>
       <r>   -1.5206    1.0000 </r>
       <r>   -1.5137    1.0000 </r>
       <r>   -1.1854    1.0000 </r>
       <r>   -1.0880    1.0000 </r>
       <r>   -0.6785    1.0000 </r>
       <r>   -0.4435    1.0000 </r>
       <r>    0.1542    1.0000 </r>
       <r>    0.2228    1.0000 </r>
       <r>    0.6380    1.0000 </r>
       <r>    0.6841    1.0000 </r>
       <r>    0.9444    1.0000 </r>
       <r>    1.0316    1.0000 </r>
       <r>    1.1207    1.0000 </r>
       <r>    1.2857    1.0000 </r>
       <r>    1.4654    1.0000 </r>
       <r>    1.7668    1.0000 </r>
       <r>    2.0104    1.0000 </r>
       <r>    2.2417    1.0000 </r>
       <r>    3.7363    1.0000 </r>
       <r>    3.8032    1.0000 </r>
       <r>    4.1410    1.0000 </r>
       <r>    4.3293    1.0000 </r>
       <r>    4.7902    0.0000 </r>
       <r>    4.8240    0.0000 </r>
       <r>    4.8863    0.0000 </r>
       <r>    4.8959    0.0000 </r>
       <r>    5.2077    0.0000 </r>
       <r>    5.2389    0.0000 </r>
       <r>    5.4240    0.0000 </r>
       <r>    5.4356    0.0000 </r>
       <r>    6.5227    0.0000 </r>
       <r>    6.5552    0.0000 </r>
       <r>    6.9357    0.0000 </r>
       <r>    7.0450    0.0000 </r>
      </set>
      <set comment="kpoint 14">
       <r>  -44.4750    1.0000 </r>
       <r>  -44.4748    1.0000 </r>
       <r>  -44.4735    1.0000 </r>
       <r>  -44.4697    1.0000 </r>
       <r>  -44.3506    1.0000 </r>
       <r>  -44.3493    1.0000 </r>
       <r>  -44.3467    1.0000 </r>
       <r>  -44.3442    1.0000 </r>
       <r>  -44.2990    1.0000 </r>
       <r>  -44.2968    1.0000 </r>
       <r>  -44.2765    1.0000 </r>
       <r>  -44.2755    1.0000 </r>
       <r>  -14.4923    1.0000 </r>
       <r>  -14.3118    1.0000 </r>
       <r>  -14.0944    1.0000 </r>
       <r>  -14.0341    1.0000 </r>
       <r>  -13.8443    1.0000 </r>
       <r>  -13.7106    1.0000 </r>
       <r>  -13.2871    1.0000 </r>
       <r>  -13.2815    1.0000 </r>
       <r>   -2.2311    1.0000 </r>
       <r>   -2.0139    1.0000 </r>
       <r>   -1.9176    1.0000 </r>
       <r>   -1.8546    1.0000 </r>
       <r>   -1.8519    1.0000 </r>
       <r>   -1.6135    1.0000 </r>
       <r>   -1.5814    1.0000 </r>
       <r>   -1.4880    1.0000 </r>
       <r>   -1.1174    1.0000 </r>
       <r>   -1.1050    1.0000 </r>
       <r>   -0.3524    1.0000 </r>
       <r>   -0.0946    1.0000 </r>
       <r>    0.0569    1.0000 </r>
       <r>    0.1708    1.0000 </r>
       <r>    0.4008    1.0000 </r>
       <r>    0.5265    1.0000 </r>
       <r>    0.7851    1.0000 </r>
       <r>    0.9122    1.0000 </r>
       <r>    1.1711    1.0000 </r>
       <r>    1.2254    1.0000 </r>
       <r>    1.6022    1.0000 </r>
       <r>    1.9001    1.0000 </r>
       <r>    2.3456    1.0000 </r>
       <r>    2.4318    1.0000 </r>
       <r>    3.7851    1.0000 </r>
       <r>    3.9591    1.0000 </r>
       <r>    3.9639    1.0000 </r>
       <r>    4.4009    1.0000 </r>
       <r>    4.6144    0.9972 </r>
       <r>    4.6473    0.0295 </r>
       <r>    4.6593    0.0002 </r>
       <r>    4.7879    0.0000 </r>
       <r>    5.3070    0.0000 </r>
       <r>    5.4367    0.0000 </r>
       <r>    5.5323    0.0000 </r>
       <r>    5.5567    0.0000 </r>
       <r>    6.4981    0.0000 </r>
       <r>    6.5569    0.0000 </r>
       <r>    6.8278    0.0000 </r>
       <r>    7.1348    0.0000 </r>
      </set>
      <set comment="kpoint 15">
       <r>  -44.4229    1.0000 </r>
       <r>  -44.4220    1.0000 </r>
       <r>  -44.4201    1.0000 </r>
       <r>  -44.4149    1.0000 </r>
       <r>  -44.3617    1.0000 </r>
       <r>  -44.3592    1.0000 </r>
       <r>  -44.3574    1.0000 </r>
       <r>  -44.3511    1.0000 </r>
       <r>  -44.3075    1.0000 </r>
       <r>  -44.3070    1.0000 </r>
       <r>  -44.2757    1.0000 </r>
       <r>  -44.2728    1.0000 </r>
       <r>  -14.8944    1.0000 </r>
       <r>  -14.5144    1.0000 </r>
       <r>  -14.2829    1.0000 </r>
       <r>  -14.0835    1.0000 </r>
       <r>  -13.9984    1.0000 </r>
       <r>  -13.7646    1.0000 </r>
       <r>  -13.2488    1.0000 </r>
       <r>  -13.2424    1.0000 </r>
       <r>   -2.2457    1.0000 </r>
       <r>   -1.9688    1.0000 </r>
       <r>   -1.9615    1.0000 </r>
       <r>   -1.7624    1.0000 </r>
       <r>   -1.6521    1.0000 </r>
       <r>   -1.6500    1.0000 </r>
       <r>   -1.3031    1.0000 </r>
       <r>   -1.2921    1.0000 </r>
       <r>   -1.0568    1.0000 </r>
       <r>   -0.6296    1.0000 </r>
       <r>   -0.5027    1.0000 </r>
       <r>   -0.2291    1.0000 </r>
       <r>    0.1414    1.0000 </r>
       <r>    0.2844    1.0000 </r>
       <r>    0.4361    1.0000 </r>
       <r>    0.6233    1.0000 </r>
       <r>    0.9152    1.0000 </r>
       <r>    0.9984    1.0000 </r>
       <r>    1.1800    1.0000 </r>
       <r>    1.2370    1.0000 </r>
       <r>    1.7185    1.0000 </r>
       <r>    2.1112    1.0000 </r>
       <r>    2.4278    1.0000 </r>
       <r>    2.8369    1.0000 </r>
       <r>    3.7430    1.0000 </r>
       <r>    3.9890    1.0000 </r>
       <r>    4.0683    1.0000 </r>
       <r>    4.2617    1.0000 </r>
       <r>    4.3797    1.0000 </r>
       <r>    4.4714    1.0000 </r>
       <r>    4.6099    0.9997 </r>
       <r>    4.7314    0.0000 </r>
       <r>    5.2906    0.0000 </r>
       <r>    5.5216    0.0000 </r>
       <r>    5.5587    0.0000 </r>
       <r>    5.6551    0.0000 </r>
       <r>    6.5659    0.0000 </r>
       <r>    6.5847    0.0000 </r>
       <r>    6.7234    0.0000 </r>
       <r>    7.1862    0.0000 </r>
      </set>
      <set comment="kpoint 16">
       <r>  -44.3742    1.0000 </r>
       <r>  -44.3726    1.0000 </r>
       <r>  -44.3719    1.0000 </r>
       <r>  -44.3660    1.0000 </r>
       <r>  -44.3646    1.0000 </r>
       <r>  -44.3595    1.0000 </r>
       <r>  -44.3576    1.0000 </r>
       <r>  -44.3525    1.0000 </r>
       <r>  -44.3151    1.0000 </r>
       <r>  -44.3140    1.0000 </r>
       <r>  -44.2768    1.0000 </r>
       <r>  -44.2723    1.0000 </r>
       <r>  -15.2636    1.0000 </r>
       <r>  -14.7281    1.0000 </r>
       <r>  -14.5770    1.0000 </r>
       <r>  -14.1643    1.0000 </r>
       <r>  -14.0278    1.0000 </r>
       <r>  -13.7937    1.0000 </r>
       <r>  -13.2498    1.0000 </r>
       <r>  -13.2427    1.0000 </r>
       <r>   -2.6218    1.0000 </r>
       <r>   -2.0795    1.0000 </r>
       <r>   -2.0068    1.0000 </r>
       <r>   -1.8224    1.0000 </r>
       <r>   -1.5728    1.0000 </r>
       <r>   -1.5296    1.0000 </r>
       <r>   -1.1688    1.0000 </r>
       <r>   -1.0331    1.0000 </r>
       <r>   -0.9267    1.0000 </r>
       <r>   -0.3657    1.0000 </r>
       <r>   -0.1921    1.0000 </r>
       <r>   -0.0310    1.0000 </r>
       <r>    0.0375    1.0000 </r>
       <r>    0.2735    1.0000 </r>
       <r>    0.6710    1.0000 </r>
       <r>    0.8935    1.0000 </r>
       <r>    1.0626    1.0000 </r>
       <r>    1.1720    1.0000 </r>
       <r>    1.3932    1.0000 </r>
       <r>    1.7298    1.0000 </r>
       <r>    1.9710    1.0000 </r>
       <r>    2.2621    1.0000 </r>
       <r>    2.2823    1.0000 </r>
       <r>    3.0711    1.0000 </r>
       <r>    3.7203    1.0000 </r>
       <r>    3.8891    1.0000 </r>
       <r>    4.0507    1.0000 </r>
       <r>    4.0655    1.0000 </r>
       <r>    4.3288    1.0000 </r>
       <r>    4.4501    1.0000 </r>
       <r>    4.5036    1.0000 </r>
       <r>    4.6861    0.0000 </r>
       <r>    5.1320    0.0000 </r>
       <r>    5.4146    0.0000 </r>
       <r>    5.4546    0.0000 </r>
       <r>    5.7962    0.0000 </r>
       <r>    6.5310    0.0000 </r>
       <r>    6.7685    0.0000 </r>
       <r>    6.8276    0.0000 </r>
       <r>    7.6730    0.0000 </r>
      </set>
      <set comment="kpoint 17">
       <r>  -44.3820    1.0000 </r>
       <r>  -44.3801    1.0000 </r>
       <r>  -44.3785    1.0000 </r>
       <r>  -44.3663    1.0000 </r>
       <r>  -44.3305    1.0000 </r>
       <r>  -44.3219    1.0000 </r>
       <r>  -44.3208    1.0000 </r>
       <r>  -44.3172    1.0000 </r>
       <r>  -44.3077    1.0000 </r>
       <r>  -44.3057    1.0000 </r>
       <r>  -44.2786    1.0000 </r>
       <r>  -44.2729    1.0000 </r>
       <r>  -15.5165    1.0000 </r>
       <r>  -14.8891    1.0000 </r>
       <r>  -14.7904    1.0000 </r>
       <r>  -14.2380    1.0000 </r>
       <r>  -14.0418    1.0000 </r>
       <r>  -13.8101    1.0000 </r>
       <r>  -13.2686    1.0000 </r>
       <r>  -13.2445    1.0000 </r>
       <r>   -2.9356    1.0000 </r>
       <r>   -2.2118    1.0000 </r>
       <r>   -2.1601    1.0000 </r>
       <r>   -1.9976    1.0000 </r>
       <r>   -1.5357    1.0000 </r>
       <r>   -1.2727    1.0000 </r>
       <r>   -1.1097    1.0000 </r>
       <r>   -0.7954    1.0000 </r>
       <r>   -0.7659    1.0000 </r>
       <r>   -0.3282    1.0000 </r>
       <r>   -0.3090    1.0000 </r>
       <r>    0.0166    1.0000 </r>
       <r>    0.3451    1.0000 </r>
       <r>    0.5943    1.0000 </r>
       <r>    0.8752    1.0000 </r>
       <r>    0.8798    1.0000 </r>
       <r>    1.0527    1.0000 </r>
       <r>    1.6868    1.0000 </r>
       <r>    1.8296    1.0000 </r>
       <r>    1.9760    1.0000 </r>
       <r>    2.1647    1.0000 </r>
       <r>    2.4556    1.0000 </r>
       <r>    2.5024    1.0000 </r>
       <r>    2.9292    1.0000 </r>
       <r>    3.6315    1.0000 </r>
       <r>    3.9121    1.0000 </r>
       <r>    3.9332    1.0000 </r>
       <r>    4.1314    1.0000 </r>
       <r>    4.1355    1.0000 </r>
       <r>    4.2918    1.0000 </r>
       <r>    4.5367    1.0000 </r>
       <r>    4.5537    1.0000 </r>
       <r>    4.9313    0.0000 </r>
       <r>    5.2227    0.0000 </r>
       <r>    5.4159    0.0000 </r>
       <r>    5.8491    0.0000 </r>
       <r>    6.3459    0.0000 </r>
       <r>    7.0336    0.0000 </r>
       <r>    7.4621    0.0000 </r>
       <r>    7.6905    0.0000 </r>
      </set>
[...]
       <r>   -0.4607    1.0000 </r>
       <r>   -0.4594    1.0000 </r>
       <r>    0.4210    1.0000 </r>
       <r>    0.4226    1.0000 </r>
       <r>    0.5733    1.0000 </r>
       <r>    0.5742    1.0000 </r>
       <r>    0.7736    1.0000 </r>
       <r>    0.7738    1.0000 </r>
       <r>    1.2963    1.0000 </r>
       <r>    1.2971    1.0000 </r>
       <r>    1.7794    1.0000 </r>
       <r>    1.7811    1.0000 </r>
       <r>    2.4805    1.0000 </r>
       <r>    2.4820    1.0000 </r>
       <r>    4.0358    1.0000 </r>
       <r>    4.0368    1.0000 </r>
       <r>    4.2446    1.0000 </r>
       <r>    4.2451    1.0000 </r>
       <r>    4.6245    0.9096 </r>
       <r>    4.6250    0.8960 </r>
       <r>    4.8106    0.0000 </r>
       <r>    4.8114    0.0000 </r>
       <r>    5.1882    0.0000 </r>
       <r>    5.1889    0.0000 </r>
       <r>    5.2286    0.0000 </r>
       <r>    5.2292    0.0000 </r>
       <r>    6.8584    0.0000 </r>
       <r>    6.8697    0.0000 </r>
       <r>    6.9282    0.0000 </r>
       <r>    6.9545    0.0000 </r>
      </set>
      <set comment="kpoint 134">
       <r>  -44.5056    1.0000 </r>
       <r>  -44.5055    1.0000 </r>
       <r>  -44.5044    1.0000 </r>
       <r>  -44.5043    1.0000 </r>
       <r>  -44.3420    1.0000 </r>
       <r>  -44.3419    1.0000 </r>
       <r>  -44.3418    1.0000 </r>
       <r>  -44.3417    1.0000 </r>
       <r>  -44.2886    1.0000 </r>
       <r>  -44.2885    1.0000 </r>
       <r>  -44.2809    1.0000 </r>
       <r>  -44.2809    1.0000 </r>
       <r>  -14.1235    1.0000 </r>
       <r>  -14.1234    1.0000 </r>
       <r>  -14.1061    1.0000 </r>
       <r>  -14.1059    1.0000 </r>
       <r>  -13.5837    1.0000 </r>
       <r>  -13.5835    1.0000 </r>
       <r>  -13.4055    1.0000 </r>
       <r>  -13.4055    1.0000 </r>
       <r>   -2.3882    1.0000 </r>
       <r>   -2.3875    1.0000 </r>
       <r>   -2.2649    1.0000 </r>
       <r>   -2.2643    1.0000 </r>
       <r>   -1.6441    1.0000 </r>
       <r>   -1.6435    1.0000 </r>
       <r>   -1.5607    1.0000 </r>
       <r>   -1.5601    1.0000 </r>
       <r>   -1.0486    1.0000 </r>
       <r>   -1.0474    1.0000 </r>
       <r>   -0.8210    1.0000 </r>
       <r>   -0.8198    1.0000 </r>
       <r>    0.4612    1.0000 </r>
       <r>    0.4624    1.0000 </r>
       <r>    0.5160    1.0000 </r>
       <r>    0.5169    1.0000 </r>
       <r>    0.9551    1.0000 </r>
       <r>    0.9552    1.0000 </r>
       <r>    1.1500    1.0000 </r>
       <r>    1.1505    1.0000 </r>
       <r>    2.0976    1.0000 </r>
       <r>    2.0992    1.0000 </r>
       <r>    2.3651    1.0000 </r>
       <r>    2.3666    1.0000 </r>
       <r>    4.0333    1.0000 </r>
       <r>    4.0342    1.0000 </r>
       <r>    4.1558    1.0000 </r>
       <r>    4.1564    1.0000 </r>
       <r>    4.7281    0.0000 </r>
       <r>    4.7285    0.0000 </r>
       <r>    4.8576    0.0000 </r>
       <r>    4.8579    0.0000 </r>
       <r>    5.0627    0.0000 </r>
       <r>    5.0635    0.0000 </r>
       <r>    5.1679    0.0000 </r>
       <r>    5.1683    0.0000 </r>
       <r>    6.8378    0.0000 </r>
       <r>    6.8396    0.0000 </r>
       <r>    6.8674    0.0000 </r>
       <r>    6.8682    0.0000 </r>
      </set>
     </set>
    </set>
   </array>
  </eigenvalues>
  <separator name="orbital magnetization" >
   <v name="MAGDIPOLOUT">      0.00000000      0.00000000      0.00000000</v>
  </separator>
  <dos>
   <i name="efermi">      4.63391815 </i>
   <total>
    <array>
     <dimension dim="1">gridpoints</dimension>
     <dimension dim="2">spin</dimension>
     <field>energy</field>
     <field>total</field>
     <field>integrated</field>
     <set>
      <set comment="spin 1">
       <r>   -47.1420     0.0000     0.0000 </r>
       <r>   -46.9487     0.0000     0.0000 </r>
       <r>   -46.7555     0.0000     0.0000 </r>
       <r>   -46.5622     0.0000     0.0000 </r>
       <r>   -46.3689     0.0000     0.0000 </r>
       <r>   -46.1756     0.0000     0.0000 </r>
       <r>   -45.9823     0.0000     0.0000 </r>
       <r>   -45.7890     0.0000     0.0000 </r>
       <r>   -45.5957     0.0000     0.0000 </r>
       <r>   -45.4024     0.0000     0.0000 </r>
       <r>   -45.2091     0.0000     0.0000 </r>
       <r>   -45.0158     0.0000     0.0000 </r>
       <r>   -44.8226     0.0000     0.0000 </r>
       <r>   -44.6293     0.0000     0.0000 </r>
       <r>   -44.4360    15.1834     2.9348 </r>
       <r>   -44.2427    47.4637    24.0000 </r>
       <r>   -44.0494     0.0000    24.0000 </r>
       <r>   -43.8561     0.0000    24.0000 </r>
       <r>   -43.6628     0.0000    24.0000 </r>
       <r>   -43.4695     0.0000    24.0000 </r>
       <r>   -43.2762     0.0000    24.0000 </r>
       <r>   -43.0830     0.0000    24.0000 </r>
       <r>   -42.8897     0.0000    24.0000 </r>
       <r>   -42.6964     0.0000    24.0000 </r>
       <r>   -42.5031     0.0000    24.0000 </r>
       <r>   -42.3098     0.0000    24.0000 </r>
       <r>   -42.1165     0.0000    24.0000 </r>
       <r>   -41.9232     0.0000    24.0000 </r>
       <r>   -41.7299     0.0000    24.0000 </r>
       <r>   -41.5366     0.0000    24.0000 </r>
       <r>   -41.3433     0.0000    24.0000 </r>
       <r>   -41.1501     0.0000    24.0000 </r>
       <r>   -40.9568     0.0000    24.0000 </r>
       <r>   -40.7635     0.0000    24.0000 </r>
       <r>   -40.5702     0.0000    24.0000 </r>
       <r>   -40.3769     0.0000    24.0000 </r>
       <r>   -40.1836     0.0000    24.0000 </r>
       <r>   -39.9903     0.0000    24.0000 </r>
       <r>   -39.7970     0.0000    24.0000 </r>
       <r>   -39.6037     0.0000    24.0000 </r>
       <r>   -39.4105     0.0000    24.0000 </r>
       <r>   -39.2172     0.0000    24.0000 </r>
       <r>   -39.0239     0.0000    24.0000 </r>
       <r>   -38.8306     0.0000    24.0000 </r>
       <r>   -38.6373     0.0000    24.0000 </r>
       <r>   -38.4440     0.0000    24.0000 </r>
       <r>   -38.2507     0.0000    24.0000 </r>
       <r>   -38.0574     0.0000    24.0000 </r>
       <r>   -37.8641     0.0000    24.0000 </r>
       <r>   -37.6708     0.0000    24.0000 </r>
       <r>   -37.4776     0.0000    24.0000 </r>
       <r>   -37.2843     0.0000    24.0000 </r>
       <r>   -37.0910     0.0000    24.0000 </r>
       <r>   -36.8977     0.0000    24.0000 </r>
       <r>   -36.7044     0.0000    24.0000 </r>
       <r>   -36.5111     0.0000    24.0000 </r>
       <r>   -36.3178     0.0000    24.0000 </r>
       <r>   -36.1245     0.0000    24.0000 </r>
       <r>   -35.9312     0.0000    24.0000 </r>
       <r>   -35.7380     0.0000    24.0000 </r>
       <r>   -35.5447     0.0000    24.0000 </r>
       <r>   -35.3514     0.0000    24.0000 </r>
       <r>   -35.1581     0.0000    24.0000 </r>
       <r>   -34.9648     0.0000    24.0000 </r>
       <r>   -34.7715     0.0000    24.0000 </r>
       <r>   -34.5782     0.0000    24.0000 </r>
       <r>   -34.3849     0.0000    24.0000 </r>
       <r>   -34.1916     0.0000    24.0000 </r>
       <r>   -33.9983     0.0000    24.0000 </r>
       <r>   -33.8051     0.0000    24.0000 </r>
       <r>   -33.6118     0.0000    24.0000 </r>
       <r>   -33.4185     0.0000    24.0000 </r>
       <r>   -33.2252     0.0000    24.0000 </r>
       <r>   -33.0319     0.0000    24.0000 </r>
       <r>   -32.8386     0.0000    24.0000 </r>
       <r>   -32.6453     0.0000    24.0000 </r>
       <r>   -32.4520     0.0000    24.0000 </r>
       <r>   -32.2587     0.0000    24.0000 </r>
       <r>   -32.0655     0.0000    24.0000 </r>
       <r>   -31.8722     0.0000    24.0000 </r>
       <r>   -31.6789     0.0000    24.0000 </r>
       <r>   -31.4856     0.0000    24.0000 </r>
       <r>   -31.2923     0.0000    24.0000 </r>
       <r>   -31.0990     0.0000    24.0000 </r>
       <r>   -30.9057     0.0000    24.0000 </r>
       <r>   -30.7124     0.0000    24.0000 </r>
       <r>   -30.5191     0.0000    24.0000 </r>
       <r>   -30.3258     0.0000    24.0000 </r>
       <r>   -30.1326     0.0000    24.0000 </r>
       <r>   -29.9393     0.0000    24.0000 </r>
       <r>   -29.7460     0.0000    24.0000 </r>
       <r>   -29.5527     0.0000    24.0000 </r>
       <r>   -29.3594     0.0000    24.0000 </r>
       <r>   -29.1661     0.0000    24.0000 </r>
       <r>   -28.9728     0.0000    24.0000 </r>
       <r>   -28.7795     0.0000    24.0000 </r>
       <r>   -28.5862     0.0000    24.0000 </r>
       <r>   -28.3929     0.0000    24.0000 </r>
       <r>   -28.1997     0.0000    24.0000 </r>
       <r>   -28.0064     0.0000    24.0000 </r>
       <r>   -27.8131     0.0000    24.0000 </r>
       <r>   -27.6198     0.0000    24.0000 </r>
       <r>   -27.4265     0.0000    24.0000 </r>
       <r>   -27.2332     0.0000    24.0000 </r>
       <r>   -27.0399     0.0000    24.0000 </r>
       <r>   -26.8466     0.0000    24.0000 </r>
       <r>   -26.6533     0.0000    24.0000 </r>
       <r>   -26.4601     0.0000    24.0000 </r>
       <r>   -26.2668     0.0000    24.0000 </r>
       <r>   -26.0735     0.0000    24.0000 </r>
       <r>   -25.8802     0.0000    24.0000 </r>
       <r>   -25.6869     0.0000    24.0000 </r>
       <r>   -25.4936     0.0000    24.0000 </r>
       <r>   -25.3003     0.0000    24.0000 </r>
       <r>   -25.1070     0.0000    24.0000 </r>
       <r>   -24.9137     0.0000    24.0000 </r>
       <r>   -24.7204     0.0000    24.0000 </r>
       <r>   -24.5272     0.0000    24.0000 </r>
       <r>   -24.3339     0.0000    24.0000 </r>
       <r>   -24.1406     0.0000    24.0000 </r>
       <r>   -23.9473     0.0000    24.0000 </r>
       <r>   -23.7540     0.0000    24.0000 </r>
       <r>   -23.5607     0.0000    24.0000 </r>
       <r>   -23.3674     0.0000    24.0000 </r>
       <r>   -23.1741     0.0000    24.0000 </r>
       <r>   -22.9808     0.0000    24.0000 </r>
       <r>   -22.7876     0.0000    24.0000 </r>
       <r>   -22.5943     0.0000    24.0000 </r>
       <r>   -22.4010     0.0000    24.0000 </r>
       <r>   -22.2077     0.0000    24.0000 </r>
       <r>   -22.0144     0.0000    24.0000 </r>
       <r>   -21.8211     0.0000    24.0000 </r>
       <r>   -21.6278     0.0000    24.0000 </r>
       <r>   -21.4345     0.0000    24.0000 </r>
       <r>   -21.2412     0.0000    24.0000 </r>
       <r>   -21.0479     0.0000    24.0000 </r>
       <r>   -20.8547     0.0000    24.0000 </r>
       <r>   -20.6614     0.0000    24.0000 </r>
       <r>   -20.4681     0.0000    24.0000 </r>
       <r>   -20.2748     0.0000    24.0000 </r>
       <r>   -20.0815     0.0000    24.0000 </r>
       <r>   -19.8882     0.0000    24.0000 </r>
       <r>   -19.6949     0.0000    24.0000 </r>
       <r>   -19.5016     0.0000    24.0000 </r>
       <r>   -19.3083     0.0000    24.0000 </r>
       <r>   -19.1151     0.0000    24.0000 </r>
       <r>   -18.9218     0.0000    24.0000 </r>
       <r>   -18.7285     0.0000    24.0000 </r>
       <r>   -18.5352     0.0000    24.0000 </r>
       <r>   -18.3419     0.0000    24.0000 </r>
       <r>   -18.1486     0.0000    24.0000 </r>
       <r>   -17.9553     0.0000    24.0000 </r>
       <r>   -17.7620     0.0000    24.0000 </r>
       <r>   -17.5687     0.0000    24.0000 </r>
       <r>   -17.3754     0.0000    24.0000 </r>
       <r>   -17.1822     0.0000    24.0000 </r>
       <r>   -16.9889     0.0000    24.0000 </r>
       <r>   -16.7956     0.0000    24.0000 </r>
       <r>   -16.6023     0.0000    24.0000 </r>
       <r>   -16.4090     0.0000    24.0000 </r>
       <r>   -16.2157     0.0000    24.0000 </r>
       <r>   -16.0224     0.0000    24.0000 </r>
       <r>   -15.8291     0.0000    24.0000 </r>
       <r>   -15.6358     0.0392    24.0076 </r>
       <r>   -15.4425     0.7564    24.2295 </r>
       <r>   -15.2493     1.1724    24.5827 </r>
       <r>   -15.0560     1.3400    25.2817 </r>
       <r>   -14.8627     2.0439    25.7890 </r>
       <r>   -14.6694     0.9729    26.3017 </r>
       <r>   -14.4761     2.0530    27.3589 </r>
       <r>   -14.2828     3.9579    28.8484 </r>
       <r>   -14.0895     5.9799    31.0649 </r>
       <r>   -13.8962     3.4509    33.2049 </r>
       <r>   -13.7029     2.6242    35.2648 </r>
       <r>   -13.5097     2.5868    36.0000 </r>
       <r>   -13.3164     3.2049    37.0286 </r>
       <r>   -13.1231     0.0000    40.0000 </r>
       <r>   -12.9298     0.0000    40.0000 </r>
       <r>   -12.7365     0.0000    40.0000 </r>
       <r>   -12.5432     0.0000    40.0000 </r>
       <r>   -12.3499     0.0000    40.0000 </r>
       <r>   -12.1566     0.0000    40.0000 </r>
       <r>   -11.9633     0.0000    40.0000 </r>
       <r>   -11.7700     0.0000    40.0000 </r>
       <r>   -11.5768     0.0000    40.0000 </r>
       <r>   -11.3835     0.0000    40.0000 </r>
       <r>   -11.1902     0.0000    40.0000 </r>
       <r>   -10.9969     0.0000    40.0000 </r>
       <r>   -10.8036     0.0000    40.0000 </r>
       <r>   -10.6103     0.0000    40.0000 </r>
       <r>   -10.4170     0.0000    40.0000 </r>
       <r>   -10.2237     0.0000    40.0000 </r>
       <r>   -10.0304     0.0000    40.0000 </r>
       <r>    -9.8372     0.0000    40.0000 </r>
       <r>    -9.6439     0.0000    40.0000 </r>
       <r>    -9.4506     0.0000    40.0000 </r>
       <r>    -9.2573     0.0000    40.0000 </r>
       <r>    -9.0640     0.0000    40.0000 </r>
       <r>    -8.8707     0.0000    40.0000 </r>
       <r>    -8.6774     0.0000    40.0000 </r>
       <r>    -8.4841     0.0000    40.0000 </r>
       <r>    -8.2908     0.0000    40.0000 </r>
       <r>    -8.0975     0.0000    40.0000 </r>
       <r>    -7.9043     0.0000    40.0000 </r>
       <r>    -7.7110     0.0000    40.0000 </r>
       <r>    -7.5177     0.0000    40.0000 </r>
       <r>    -7.3244     0.0000    40.0000 </r>
       <r>    -7.1311     0.0000    40.0000 </r>
       <r>    -6.9378     0.0000    40.0000 </r>
       <r>    -6.7445     0.0000    40.0000 </r>
       <r>    -6.5512     0.0000    40.0000 </r>
       <r>    -6.3579     0.0000    40.0000 </r>
       <r>    -6.1647     0.0000    40.0000 </r>
       <r>    -5.9714     0.0000    40.0000 </r>
       <r>    -5.7781     0.0000    40.0000 </r>
       <r>    -5.5848     0.0000    40.0000 </r>
       <r>    -5.3915     0.0000    40.0000 </r>
       <r>    -5.1982     0.0000    40.0000 </r>
       <r>    -5.0049     0.0000    40.0000 </r>
       <r>    -4.8116     0.0000    40.0000 </r>
       <r>    -4.6183     0.0000    40.0000 </r>
       <r>    -4.4250     0.0000    40.0000 </r>
       <r>    -4.2318     0.0000    40.0000 </r>
       <r>    -4.0385     0.0000    40.0000 </r>
       <r>    -3.8452     0.0000    40.0000 </r>
       <r>    -3.6519     0.0000    40.0000 </r>
       <r>    -3.4586     0.0000    40.0000 </r>
       <r>    -3.2653     0.0000    40.0000 </r>
       <r>    -3.0720     0.0394    40.0076 </r>
       <r>    -2.8787     0.4100    40.1323 </r>
       <r>    -2.6854     0.3191    40.3420 </r>
       <r>    -2.4921     1.8574    40.9423 </r>
       <r>    -2.2989     3.1819    42.0999 </r>
       <r>    -2.1056     5.6761    44.5971 </r>
       <r>    -1.9123     5.1962    46.5195 </r>
       <r>    -1.7190     3.8686    48.6417 </r>
       <r>    -1.5257     7.6865    51.8494 </r>
       <r>    -1.3324     2.3097    53.5601 </r>
       <r>    -1.1391     3.1780    55.1143 </r>
       <r>    -0.9458     1.8797    56.6588 </r>
       <r>    -0.7525     1.7155    57.6725 </r>
       <r>    -0.5593     2.7871    58.8039 </r>
       <r>    -0.3660     2.8250    60.6445 </r>
       <r>    -0.1727     3.4257    62.4879 </r>
       <r>     0.0206     4.0027    64.0616 </r>
       <r>     0.2139     4.6011    65.5333 </r>
       <r>     0.4072     5.7830    67.2920 </r>
       <r>     0.6005     3.8211    68.8068 </r>
       <r>     0.7938     3.9993    70.9548 </r>
       <r>     0.9871     6.7261    73.6410 </r>
       <r>     1.1804     5.2935    75.8792 </r>
       <r>     1.3736     3.9403    77.9207 </r>
       <r>     1.5669     2.3740    79.0346 </r>
       <r>     1.7602     3.4496    80.5153 </r>
       <r>     1.9535     2.1007    81.8606 </r>
       <r>     2.1468     2.8767    83.1848 </r>
       <r>     2.3401     2.2942    84.3450 </r>
       <r>     2.5334     5.1637    86.0132 </r>
       <r>     2.7267     2.2111    87.0031 </r>
       <r>     2.9200     0.4406    87.7291 </r>
       <r>     3.1132     0.3008    87.9672 </r>
       <r>     3.3065     0.0784    88.0000 </r>
       <r>     3.4998     0.0000    88.0000 </r>
       <r>     3.6931     1.4303    88.2992 </r>
       <r>     3.8864     5.0945    90.3559 </r>
       <r>     4.0797     5.4171    93.5092 </r>
       <r>     4.2730     5.5642    96.0679 </r>
       <r>     4.4663     2.9971    98.2763 </r>
       <r>     4.6596     5.6324   100.3311 </r>
       <r>     4.8529     7.0396   103.1561 </r>
       <r>     5.0461     2.6927   105.1341 </r>
       <r>     5.2394     3.8350   106.8246 </r>
       <r>     5.4327     4.5158   108.9486 </r>
       <r>     5.6260     3.7970   110.7870 </r>
       <r>     5.8193     1.6009   111.7867 </r>
       <r>     6.0126     0.0000   112.0000 </r>
       <r>     6.2059     0.0391   112.0076 </r>
       <r>     6.3992     0.4704   112.1440 </r>
       <r>     6.5925     3.4499   112.9774 </r>
       <r>     6.7857     3.0380   114.6175 </r>
       <r>     6.9790     2.9139   115.9117 </r>
       <r>     7.1723     2.0681   117.0816 </r>
       <r>     7.3656     1.4270   117.8364 </r>
       <r>     7.5589     1.8800   118.7346 </r>
       <r>     7.7522     1.3766   119.3721 </r>
       <r>     7.9455     0.5855   119.7344 </r>
       <r>     8.1388     0.1577   119.9244 </r>
       <r>     8.3321     0.0000   120.0000 </r>
       <r>     8.5254     0.0000   120.0000 </r>
       <r>     8.7186     0.0000   120.0000 </r>
       <r>     8.9119     0.0000   120.0000 </r>
       <r>     9.1052     0.0000   120.0000 </r>
       <r>     9.2985     0.0000   120.0000 </r>
       <r>     9.4918     0.0000   120.0000 </r>
       <r>     9.6851     0.0000   120.0000 </r>
       <r>     9.8784     0.0000   120.0000 </r>
       <r>    10.0717     0.0000   120.0000 </r>
       <r>    10.2650     0.0000   120.0000 </r>
       <r>    10.4583     0.0000   120.0000 </r>
       <r>    10.6515     0.0000   120.0000 </r>
       <r>    10.8448     0.0000   120.0000 </r>
      </set>
     </set>
    </array>
   </total>
  </dos>
 </calculation>
 <structure name="finalpos" >
  <crystal>
   <varray name="basis" >
    <v>       2.68869742       0.00000957       0.00000270 </v>
    <v>       0.00001584       4.82071855       0.00064811 </v>
    <v>      -0.00000216       0.00141585       9.16357066 </v>
   </varray>
   <i name="volume">    118.77319291 </i>
   <varray name="rec_basis" >
    <v>       0.37192731      -0.00000122       0.00000009 </v>
    <v>      -0.00000074       0.20743796      -0.00003205 </v>
    <v>      -0.00000011      -0.00001467       0.10912777 </v>
   </varray>
  </crystal>
  <varray name="positions" >
   <v>       0.25001214       0.05058768       0.85788433 </v>
   <v>       0.75000301       0.94946367       0.14208785 </v>
   <v>       0.74999694       0.55064186       0.64205703 </v>
   <v>       0.24998612       0.44928551       0.35792477 </v>
   <v>       0.25000058       0.70208253       0.52175077 </v>
   <v>       0.75000967       0.20196863       0.97815658 </v>
   <v>       0.24999658       0.79795356       0.02184509 </v>
   <v>       0.74998868       0.29792779       0.47827449 </v>
   <v>       0.24997290       0.15980014       0.23336640 </v>
   <v>       0.25003248       0.34022316       0.73334707 </v>
   <v>       0.74997299       0.65983019       0.26667731 </v>
   <v>       0.75002789       0.84023629       0.76662929 </v>
  </varray>
 </structure>
</modeling>
