unknown system                          
           1
     2.688697    0.000010    0.000003
     0.000016    4.820719    0.000648
    -0.000002    0.001416    9.163571
   Mn   O 
   4   8
Direct configuration=     1
   0.25001214  0.05058768  0.85788433
   0.75000301  0.94946367  0.14208785
   0.74999694  0.55064186  0.64205703
   0.24998612  0.44928551  0.35792477
   0.25000058  0.70208253  0.52175077
   0.75000967  0.20196863  0.97815658
   0.24999658  0.79795356  0.02184509
   0.74998868  0.29792779  0.47827449
   0.24997290  0.15980014  0.23336640
   0.25003248  0.34022316  0.73334707
   0.74997299  0.65983019  0.26667731
   0.75002789  0.84023629  0.76662929
