  12  12   0   0
  0.9986380E+01  0.2858610E-09  0.4568992E-09  0.9175167E-09  0.5000000E-15
  1.000000000000000E-004
  CAR 
 unknown system                          
     23.66134969    -52.39892450  301      3.75891128      1.00000000
    -52.399  0.0000E+00  0.0000E+00  0.0000E+00  0.0000E+00
    -52.145  0.0000E+00  0.0000E+00  0.0000E+00  0.0000E+00
    -51.892  0.0000E+00  0.0000E+00  0.0000E+00  0.0000E+00
    -51.638  0.0000E+00  0.0000E+00  0.0000E+00  0.0000E+00
    -51.385  0.0000E+00  0.0000E+00  0.0000E+00  0.0000E+00
    -51.131  0.0000E+00  0.0000E+00  0.0000E+00  0.0000E+00
    -50.878  0.0000E+00  0.0000E+00  0.0000E+00  0.0000E+00
    -50.624  0.0000E+00  0.0000E+00  0.0000E+00  0.0000E+00
    -50.371  0.0000E+00  0.0000E+00  0.0000E+00  0.0000E+00
    -50.117  0.0000E+00  0.0000E+00  0.0000E+00  0.0000E+00
    -49.864  0.0000E+00  0.0000E+00  0.0000E+00  0.0000E+00
    -49.610  0.0000E+00  0.0000E+00  0.0000E+00  0.0000E+00
    -49.357  0.0000E+00  0.0000E+00  0.0000E+00  0.0000E+00
    -49.103  0.0000E+00  0.0000E+00  0.0000E+00  0.0000E+00
    -48.849  0.1052E+02  0.0000E+00  0.3490E+01  0.0000E+00
    -48.596  0.0000E+00  0.0000E+00  0.1200E+02  0.0000E+00
    -48.342  0.0000E+00  0.0000E+00  0.1200E+02  0.0000E+00
    -48.089  0.0000E+00  0.0000E+00  0.1200E+02  0.0000E+00
    -47.835  0.0000E+00  0.0000E+00  0.1200E+02  0.0000E+00
    -47.582  0.0000E+00  0.0000E+00  0.1200E+02  0.0000E+00
    -47.328  0.0000E+00  0.0000E+00  0.1200E+02  0.0000E+00
    -47.075  0.0000E+00  0.0000E+00  0.1200E+02  0.0000E+00
    -46.821  0.0000E+00  0.0000E+00  0.1200E+02  0.0000E+00
    -46.568  0.0000E+00  0.0000E+00  0.1200E+02  0.0000E+00
    -46.314  0.0000E+00  0.0000E+00  0.1200E+02  0.0000E+00
    -46.061  0.0000E+00  0.0000E+00  0.1200E+02  0.0000E+00
    -45.807  0.0000E+00  0.0000E+00  0.1200E+02  0.0000E+00
    -45.553  0.0000E+00  0.0000E+00  0.1200E+02  0.0000E+00
    -45.300  0.0000E+00  0.0000E+00  0.1200E+02  0.0000E+00
    -45.046  0.0000E+00  0.0000E+00  0.1200E+02  0.0000E+00
    -44.793  0.0000E+00  0.7936E+01  0.1200E+02  0.3891E+01
    -44.539  0.0000E+00  0.1248E+02  0.1200E+02  0.1200E+02
    -44.286  0.0000E+00  0.0000E+00  0.1200E+02  0.1200E+02
    -44.032  0.0000E+00  0.0000E+00  0.1200E+02  0.1200E+02
    -43.779  0.0000E+00  0.0000E+00  0.1200E+02  0.1200E+02
    -43.525  0.0000E+00  0.0000E+00  0.1200E+02  0.1200E+02
    -43.272  0.0000E+00  0.0000E+00  0.1200E+02  0.1200E+02
    -43.018  0.0000E+00  0.0000E+00  0.1200E+02  0.1200E+02
    -42.765  0.0000E+00  0.0000E+00  0.1200E+02  0.1200E+02
    -42.511  0.0000E+00  0.0000E+00  0.1200E+02  0.1200E+02
    -42.258  0.0000E+00  0.0000E+00  0.1200E+02  0.1200E+02
    -42.004  0.0000E+00  0.0000E+00  0.1200E+02  0.1200E+02
    -41.750  0.0000E+00  0.0000E+00  0.1200E+02  0.1200E+02
    -41.497  0.0000E+00  0.0000E+00  0.1200E+02  0.1200E+02
    -41.243  0.0000E+00  0.0000E+00  0.1200E+02  0.1200E+02
    -40.990  0.0000E+00  0.0000E+00  0.1200E+02  0.1200E+02
    -40.736  0.0000E+00  0.0000E+00  0.1200E+02  0.1200E+02
    -40.483  0.0000E+00  0.0000E+00  0.1200E+02  0.1200E+02
    -40.229  0.0000E+00  0.0000E+00  0.1200E+02  0.1200E+02
    -39.976  0.0000E+00  0.0000E+00  0.1200E+02  0.1200E+02
    -39.722  0.0000E+00  0.0000E+00  0.1200E+02  0.1200E+02
    -39.469  0.0000E+00  0.0000E+00  0.1200E+02  0.1200E+02
    -39.215  0.0000E+00  0.0000E+00  0.1200E+02  0.1200E+02
    -38.962  0.0000E+00  0.0000E+00  0.1200E+02  0.1200E+02
    -38.708  0.0000E+00  0.0000E+00  0.1200E+02  0.1200E+02
    -38.455  0.0000E+00  0.0000E+00  0.1200E+02  0.1200E+02
    -38.201  0.0000E+00  0.0000E+00  0.1200E+02  0.1200E+02
    -37.947  0.0000E+00  0.0000E+00  0.1200E+02  0.1200E+02
    -37.694  0.0000E+00  0.0000E+00  0.1200E+02  0.1200E+02
    -37.440  0.0000E+00  0.0000E+00  0.1200E+02  0.1200E+02
    -37.187  0.0000E+00  0.0000E+00  0.1200E+02  0.1200E+02
    -36.933  0.0000E+00  0.0000E+00  0.1200E+02  0.1200E+02
    -36.680  0.0000E+00  0.0000E+00  0.1200E+02  0.1200E+02
    -36.426  0.0000E+00  0.0000E+00  0.1200E+02  0.1200E+02
    -36.173  0.0000E+00  0.0000E+00  0.1200E+02  0.1200E+02
    -35.919  0.0000E+00  0.0000E+00  0.1200E+02  0.1200E+02
    -35.666  0.0000E+00  0.0000E+00  0.1200E+02  0.1200E+02
    -35.412  0.0000E+00  0.0000E+00  0.1200E+02  0.1200E+02
    -35.159  0.0000E+00  0.0000E+00  0.1200E+02  0.1200E+02
    -34.905  0.0000E+00  0.0000E+00  0.1200E+02  0.1200E+02
    -34.652  0.0000E+00  0.0000E+00  0.1200E+02  0.1200E+02
    -34.398  0.0000E+00  0.0000E+00  0.1200E+02  0.1200E+02
    -34.144  0.0000E+00  0.0000E+00  0.1200E+02  0.1200E+02
    -33.891  0.0000E+00  0.0000E+00  0.1200E+02  0.1200E+02
    -33.637  0.0000E+00  0.0000E+00  0.1200E+02  0.1200E+02
    -33.384  0.0000E+00  0.0000E+00  0.1200E+02  0.1200E+02
    -33.130  0.0000E+00  0.0000E+00  0.1200E+02  0.1200E+02
    -32.877  0.0000E+00  0.0000E+00  0.1200E+02  0.1200E+02
    -32.623  0.0000E+00  0.0000E+00  0.1200E+02  0.1200E+02
    -32.370  0.0000E+00  0.0000E+00  0.1200E+02  0.1200E+02
    -32.116  0.0000E+00  0.0000E+00  0.1200E+02  0.1200E+02
    -31.863  0.0000E+00  0.0000E+00  0.1200E+02  0.1200E+02
    -31.609  0.0000E+00  0.0000E+00  0.1200E+02  0.1200E+02
    -31.356  0.0000E+00  0.0000E+00  0.1200E+02  0.1200E+02
    -31.102  0.0000E+00  0.0000E+00  0.1200E+02  0.1200E+02
    -30.849  0.0000E+00  0.0000E+00  0.1200E+02  0.1200E+02
    -30.595  0.0000E+00  0.0000E+00  0.1200E+02  0.1200E+02
    -30.341  0.0000E+00  0.0000E+00  0.1200E+02  0.1200E+02
    -30.088  0.0000E+00  0.0000E+00  0.1200E+02  0.1200E+02
    -29.834  0.0000E+00  0.0000E+00  0.1200E+02  0.1200E+02
    -29.581  0.0000E+00  0.0000E+00  0.1200E+02  0.1200E+02
    -29.327  0.0000E+00  0.0000E+00  0.1200E+02  0.1200E+02
    -29.074  0.0000E+00  0.0000E+00  0.1200E+02  0.1200E+02
    -28.820  0.0000E+00  0.0000E+00  0.1200E+02  0.1200E+02
    -28.567  0.0000E+00  0.0000E+00  0.1200E+02  0.1200E+02
    -28.313  0.0000E+00  0.0000E+00  0.1200E+02  0.1200E+02
    -28.060  0.0000E+00  0.0000E+00  0.1200E+02  0.1200E+02
    -27.806  0.0000E+00  0.0000E+00  0.1200E+02  0.1200E+02
    -27.553  0.0000E+00  0.0000E+00  0.1200E+02  0.1200E+02
    -27.299  0.0000E+00  0.0000E+00  0.1200E+02  0.1200E+02
    -27.045  0.0000E+00  0.0000E+00  0.1200E+02  0.1200E+02
    -26.792  0.0000E+00  0.0000E+00  0.1200E+02  0.1200E+02
    -26.538  0.0000E+00  0.0000E+00  0.1200E+02  0.1200E+02
    -26.285  0.0000E+00  0.0000E+00  0.1200E+02  0.1200E+02
    -26.031  0.0000E+00  0.0000E+00  0.1200E+02  0.1200E+02
    -25.778  0.0000E+00  0.0000E+00  0.1200E+02  0.1200E+02
    -25.524  0.0000E+00  0.0000E+00  0.1200E+02  0.1200E+02
    -25.271  0.0000E+00  0.0000E+00  0.1200E+02  0.1200E+02
    -25.017  0.0000E+00  0.0000E+00  0.1200E+02  0.1200E+02
    -24.764  0.0000E+00  0.0000E+00  0.1200E+02  0.1200E+02
    -24.510  0.0000E+00  0.0000E+00  0.1200E+02  0.1200E+02
    -24.257  0.0000E+00  0.0000E+00  0.1200E+02  0.1200E+02
    -24.003  0.0000E+00  0.0000E+00  0.1200E+02  0.1200E+02
    -23.750  0.0000E+00  0.0000E+00  0.1200E+02  0.1200E+02
    -23.496  0.0000E+00  0.0000E+00  0.1200E+02  0.1200E+02
    -23.242  0.0000E+00  0.0000E+00  0.1200E+02  0.1200E+02
    -22.989  0.0000E+00  0.0000E+00  0.1200E+02  0.1200E+02
    -22.735  0.0000E+00  0.0000E+00  0.1200E+02  0.1200E+02
    -22.482  0.0000E+00  0.0000E+00  0.1200E+02  0.1200E+02
    -22.228  0.0000E+00  0.0000E+00  0.1200E+02  0.1200E+02
    -21.975  0.0000E+00  0.0000E+00  0.1200E+02  0.1200E+02
    -21.721  0.0000E+00  0.0000E+00  0.1200E+02  0.1200E+02
    -21.468  0.0000E+00  0.0000E+00  0.1200E+02  0.1200E+02
    -21.214  0.0000E+00  0.0000E+00  0.1200E+02  0.1200E+02
    -20.961  0.0000E+00  0.0000E+00  0.1200E+02  0.1200E+02
    -20.707  0.0000E+00  0.0000E+00  0.1200E+02  0.1200E+02
    -20.454  0.0000E+00  0.0000E+00  0.1200E+02  0.1200E+02
    -20.200  0.0000E+00  0.0000E+00  0.1200E+02  0.1200E+02
    -19.947  0.0000E+00  0.0000E+00  0.1200E+02  0.1200E+02
    -19.693  0.0000E+00  0.0000E+00  0.1200E+02  0.1200E+02
    -19.439  0.0000E+00  0.0000E+00  0.1200E+02  0.1200E+02
    -19.186  0.0000E+00  0.0000E+00  0.1200E+02  0.1200E+02
    -18.932  0.0000E+00  0.0000E+00  0.1200E+02  0.1200E+02
    -18.679  0.0000E+00  0.0000E+00  0.1200E+02  0.1200E+02
    -18.425  0.0000E+00  0.0000E+00  0.1200E+02  0.1200E+02
    -18.172  0.0000E+00  0.0000E+00  0.1200E+02  0.1200E+02
    -17.918  0.0000E+00  0.0000E+00  0.1200E+02  0.1200E+02
    -17.665  0.0000E+00  0.0000E+00  0.1200E+02  0.1200E+02
    -17.411  0.0000E+00  0.0000E+00  0.1200E+02  0.1200E+02
    -17.158  0.0000E+00  0.0000E+00  0.1200E+02  0.1200E+02
    -16.904  0.0000E+00  0.0000E+00  0.1200E+02  0.1200E+02
    -16.651  0.1943E+00  0.7068E-01  0.1207E+02  0.1202E+02
    -16.397  0.3434E+00  0.3222E+00  0.1228E+02  0.1222E+02
    -16.144  0.2968E+00  0.7925E+00  0.1273E+02  0.1270E+02
    -15.890  0.2700E+00  0.5298E+00  0.1310E+02  0.1303E+02
    -15.636  0.5429E+00  0.6200E+00  0.1347E+02  0.1339E+02
    -15.383  0.1335E+01  0.1010E+01  0.1429E+02  0.1390E+02
    -15.129  0.1739E+01  0.2185E+01  0.1531E+02  0.1495E+02
    -14.876  0.5869E+01  0.1253E+01  0.1783E+02  0.1619E+02
    -14.622  0.8294E+00  0.4511E+01  0.2000E+02  0.1960E+02
    -14.369  0.0000E+00  0.0000E+00  0.2000E+02  0.2000E+02
    -14.115  0.0000E+00  0.0000E+00  0.2000E+02  0.2000E+02
    -13.862  0.0000E+00  0.0000E+00  0.2000E+02  0.2000E+02
    -13.608  0.0000E+00  0.0000E+00  0.2000E+02  0.2000E+02
    -13.355  0.0000E+00  0.0000E+00  0.2000E+02  0.2000E+02
    -13.101  0.0000E+00  0.0000E+00  0.2000E+02  0.2000E+02
    -12.848  0.0000E+00  0.0000E+00  0.2000E+02  0.2000E+02
    -12.594  0.0000E+00  0.0000E+00  0.2000E+02  0.2000E+02
    -12.341  0.0000E+00  0.0000E+00  0.2000E+02  0.2000E+02
    -12.087  0.0000E+00  0.0000E+00  0.2000E+02  0.2000E+02
    -11.833  0.0000E+00  0.0000E+00  0.2000E+02  0.2000E+02
    -11.580  0.0000E+00  0.0000E+00  0.2000E+02  0.2000E+02
    -11.326  0.0000E+00  0.0000E+00  0.2000E+02  0.2000E+02
    -11.073  0.0000E+00  0.0000E+00  0.2000E+02  0.2000E+02
    -10.819  0.0000E+00  0.0000E+00  0.2000E+02  0.2000E+02
    -10.566  0.0000E+00  0.0000E+00  0.2000E+02  0.2000E+02
    -10.312  0.0000E+00  0.0000E+00  0.2000E+02  0.2000E+02
    -10.059  0.0000E+00  0.0000E+00  0.2000E+02  0.2000E+02
     -9.805  0.0000E+00  0.0000E+00  0.2000E+02  0.2000E+02
     -9.552  0.0000E+00  0.0000E+00  0.2000E+02  0.2000E+02
     -9.298  0.0000E+00  0.0000E+00  0.2000E+02  0.2000E+02
     -9.045  0.0000E+00  0.0000E+00  0.2000E+02  0.2000E+02
     -8.791  0.0000E+00  0.0000E+00  0.2000E+02  0.2000E+02
     -8.537  0.0000E+00  0.0000E+00  0.2000E+02  0.2000E+02
     -8.284  0.0000E+00  0.0000E+00  0.2000E+02  0.2000E+02
     -8.030  0.0000E+00  0.0000E+00  0.2000E+02  0.2000E+02
     -7.777  0.0000E+00  0.0000E+00  0.2000E+02  0.2000E+02
     -7.523  0.0000E+00  0.0000E+00  0.2000E+02  0.2000E+02
     -7.270  0.0000E+00  0.0000E+00  0.2000E+02  0.2000E+02
     -7.016  0.0000E+00  0.0000E+00  0.2000E+02  0.2000E+02
     -6.763  0.0000E+00  0.0000E+00  0.2000E+02  0.2000E+02
     -6.509  0.0000E+00  0.0000E+00  0.2000E+02  0.2000E+02
     -6.256  0.0000E+00  0.0000E+00  0.2000E+02  0.2000E+02
     -6.002  0.0000E+00  0.0000E+00  0.2000E+02  0.2000E+02
     -5.749  0.0000E+00  0.0000E+00  0.2000E+02  0.2000E+02
     -5.495  0.0000E+00  0.0000E+00  0.2000E+02  0.2000E+02
     -5.242  0.0000E+00  0.0000E+00  0.2000E+02  0.2000E+02
     -4.988  0.0000E+00  0.0000E+00  0.2000E+02  0.2000E+02
     -4.734  0.0000E+00  0.0000E+00  0.2000E+02  0.2000E+02
     -4.481  0.0000E+00  0.0000E+00  0.2000E+02  0.2000E+02
     -4.227  0.0000E+00  0.0000E+00  0.2000E+02  0.2000E+02
     -3.974  0.0000E+00  0.0000E+00  0.2000E+02  0.2000E+02
     -3.720  0.2312E-01  0.0000E+00  0.2001E+02  0.2000E+02
     -3.467  0.2082E+00  0.0000E+00  0.2013E+02  0.2000E+02
     -3.213  0.4893E+00  0.0000E+00  0.2043E+02  0.2000E+02
     -2.960  0.1400E+01  0.1562E-01  0.2138E+02  0.2000E+02
     -2.706  0.1586E+01  0.2621E+00  0.2288E+02  0.2013E+02
     -2.453  0.1394E+01  0.6537E+00  0.2417E+02  0.2038E+02
     -2.199  0.1680E+01  0.1389E+01  0.2555E+02  0.2122E+02
     -1.946  0.2658E+01  0.1474E+01  0.2755E+02  0.2267E+02
     -1.692  0.9960E+00  0.1465E+01  0.2831E+02  0.2386E+02
     -1.439  0.1522E+01  0.2874E+01  0.2953E+02  0.2590E+02
     -1.185  0.7304E+00  0.1745E+01  0.3046E+02  0.2759E+02
     -0.931  0.1753E+01  0.5714E+00  0.3169E+02  0.2829E+02
     -0.678  0.1273E+01  0.1144E+01  0.3264E+02  0.2949E+02
     -0.424  0.2181E+01  0.1408E+01  0.3357E+02  0.3053E+02
     -0.171  0.1720E+01  0.8868E+00  0.3529E+02  0.3150E+02
      0.083  0.1739E+01  0.4446E+00  0.3693E+02  0.3208E+02
      0.336  0.2236E+01  0.1623E+01  0.3861E+02  0.3310E+02
      0.590  0.1423E+01  0.2008E+01  0.3987E+02  0.3456E+02
      0.843  0.1514E+01  0.2046E+01  0.4093E+02  0.3578E+02
      1.097  0.1168E+01  0.1293E+01  0.4226E+02  0.3722E+02
      1.350  0.1599E+01  0.7082E+00  0.4331E+02  0.3798E+02
      1.604  0.1460E+01  0.1308E+01  0.4456E+02  0.3894E+02
      1.857  0.2625E+01  0.1277E+01  0.4602E+02  0.3993E+02
      2.111  0.2261E+01  0.1472E+01  0.4791E+02  0.4098E+02
      2.364  0.1560E+01  0.1017E+01  0.4947E+02  0.4221E+02
      2.618  0.2399E+01  0.1144E+01  0.5124E+02  0.4328E+02
      2.872  0.4486E+00  0.4690E+00  0.5210E+02  0.4372E+02
      3.125  0.2061E+01  0.1281E+00  0.5338E+02  0.4395E+02
      3.379  0.1603E+01  0.1371E-01  0.5496E+02  0.4400E+02
      3.632  0.4770E+00  0.0000E+00  0.5594E+02  0.4400E+02
      3.886  0.0000E+00  0.0000E+00  0.5600E+02  0.4400E+02
      4.139  0.0000E+00  0.0000E+00  0.5600E+02  0.4400E+02
      4.393  0.0000E+00  0.0000E+00  0.5600E+02  0.4400E+02
      4.646  0.0000E+00  0.0000E+00  0.5600E+02  0.4400E+02
      4.900  0.0000E+00  0.0000E+00  0.5600E+02  0.4400E+02
      5.153  0.2763E-01  0.0000E+00  0.5601E+02  0.4400E+02
      5.407  0.1305E+01  0.3420E+00  0.5693E+02  0.4410E+02
      5.660  0.1654E+01  0.2862E+01  0.5820E+02  0.4581E+02
      5.914  0.9579E+00  0.3482E+01  0.5916E+02  0.4834E+02
      6.167  0.2427E+00  0.4315E+01  0.5943E+02  0.5059E+02
      6.421  0.1149E+01  0.1252E+01  0.6005E+02  0.5237E+02
      6.675  0.1623E+01  0.2609E+01  0.6105E+02  0.5386E+02
      6.928  0.1482E+01  0.1463E+01  0.6244E+02  0.5511E+02
      7.182  0.1002E+01  0.1740E+01  0.6386E+02  0.5618E+02
      7.435  0.3774E-01  0.1754E+01  0.6400E+02  0.5772E+02
      7.689  0.0000E+00  0.1051E+01  0.6400E+02  0.5908E+02
      7.942  0.0000E+00  0.4526E+00  0.6400E+02  0.5944E+02
      8.196  0.0000E+00  0.1203E+01  0.6400E+02  0.6068E+02
      8.449  0.0000E+00  0.1558E+01  0.6400E+02  0.6213E+02
      8.703  0.0000E+00  0.7481E+00  0.6400E+02  0.6365E+02
      8.956  0.0000E+00  0.1963E+00  0.6400E+02  0.6393E+02
      9.210  0.0000E+00  0.1409E-01  0.6400E+02  0.6400E+02
      9.463  0.0000E+00  0.0000E+00  0.6400E+02  0.6400E+02
      9.717  0.0000E+00  0.0000E+00  0.6400E+02  0.6400E+02
      9.971  0.0000E+00  0.0000E+00  0.6400E+02  0.6400E+02
     10.224  0.0000E+00  0.0000E+00  0.6400E+02  0.6400E+02
     10.478  0.0000E+00  0.0000E+00  0.6400E+02  0.6400E+02
     10.731  0.0000E+00  0.0000E+00  0.6400E+02  0.6400E+02
     10.985  0.0000E+00  0.0000E+00  0.6400E+02  0.6400E+02
     11.238  0.0000E+00  0.0000E+00  0.6400E+02  0.6400E+02
     11.492  0.0000E+00  0.0000E+00  0.6400E+02  0.6400E+02
     11.745  0.0000E+00  0.0000E+00  0.6400E+02  0.6400E+02
     11.999  0.1408E-01  0.0000E+00  0.6400E+02  0.6400E+02
     12.252  0.4221E-01  0.0000E+00  0.6401E+02  0.6400E+02
     12.506  0.5648E-01  0.5263E-05  0.6404E+02  0.6400E+02
     12.759  0.2891E-01  0.2817E-01  0.6408E+02  0.6401E+02
     13.013  0.8452E-01  0.5586E-01  0.6412E+02  0.6404E+02
     13.266  0.3275E-01  0.2254E-01  0.6416E+02  0.6407E+02
     13.520  0.1972E+00  0.5764E-01  0.6427E+02  0.6412E+02
     13.774  0.2885E-01  0.8912E-01  0.6433E+02  0.6416E+02
     14.027  0.2219E+00  0.1409E+00  0.6445E+02  0.6427E+02
     14.281  0.5635E-01  0.5635E-01  0.6454E+02  0.6434E+02
     14.534  0.4224E+00  0.2113E+00  0.6469E+02  0.6446E+02
     14.788  0.1357E-01  0.1355E+00  0.6481E+02  0.6455E+02
     15.041  0.4068E+00  0.2817E+00  0.6504E+02  0.6471E+02
     15.295  0.3944E+00  0.1151E+00  0.6525E+02  0.6484E+02
     15.548  0.4701E+00  0.2088E+00  0.6550E+02  0.6505E+02
     15.802  0.3640E+00  0.2146E+00  0.6582E+02  0.6524E+02
     16.055  0.2253E+00  0.3420E+00  0.6625E+02  0.6552E+02
     16.309  0.8198E+00  0.3792E+00  0.6678E+02  0.6586E+02
     16.562  0.6553E+00  0.4973E+00  0.6719E+02  0.6629E+02
     16.816  0.3367E+00  0.5090E+00  0.6772E+02  0.6678E+02
     17.069  0.4368E+00  0.7229E+00  0.6814E+02  0.6729E+02
     17.323  0.1690E+00  0.3461E+00  0.6853E+02  0.6771E+02
     17.577  0.2388E+00  0.2223E+00  0.6882E+02  0.6800E+02
     17.830  0.6897E+00  0.5309E+00  0.6921E+02  0.6850E+02
     18.084  0.8669E+00  0.5073E+00  0.6977E+02  0.6869E+02
     18.337  0.8200E+00  0.5657E+00  0.7038E+02  0.6897E+02
     18.591  0.3729E+00  0.5517E+00  0.7083E+02  0.6954E+02
     18.844  0.4970E+00  0.8825E+00  0.7116E+02  0.7005E+02
     19.098  0.5911E+00  0.6469E+00  0.7160E+02  0.7061E+02
     19.351  0.3833E+00  0.3663E+00  0.7190E+02  0.7096E+02
     19.605  0.5635E-01  0.5148E+00  0.7200E+02  0.7138E+02
     19.858  0.0000E+00  0.4401E+00  0.7200E+02  0.7173E+02
     20.112  0.0000E+00  0.1001E+00  0.7200E+02  0.7195E+02
     20.365  0.0000E+00  0.0000E+00  0.7200E+02  0.7200E+02
     20.619  0.0000E+00  0.0000E+00  0.7200E+02  0.7200E+02
     20.872  0.0000E+00  0.0000E+00  0.7200E+02  0.7200E+02
     21.126  0.0000E+00  0.0000E+00  0.7200E+02  0.7200E+02
     21.380  0.0000E+00  0.0000E+00  0.7200E+02  0.7200E+02
     21.633  0.0000E+00  0.0000E+00  0.7200E+02  0.7200E+02
     21.887  0.0000E+00  0.0000E+00  0.7200E+02  0.7200E+02
     22.140  0.0000E+00  0.0000E+00  0.7200E+02  0.7200E+02
     22.394  0.0000E+00  0.0000E+00  0.7200E+02  0.7200E+02
     22.647  0.0000E+00  0.0000E+00  0.7200E+02  0.7200E+02
     22.901  0.0000E+00  0.0000E+00  0.7200E+02  0.7200E+02
     23.154  0.0000E+00  0.0000E+00  0.7200E+02  0.7200E+02
     23.408  0.0000E+00  0.0000E+00  0.7200E+02  0.7200E+02
     23.661  0.0000E+00  0.0000E+00  0.7200E+02  0.7200E+02
