   12   12    1    2
  0.9986380E+01  0.2858610E-09  0.4568992E-09  0.9175167E-09  0.5000000E-15
  1.000000000000000E-004
  CAR 
 unknown system                          
    100    142     72
 
  0.0000000E+00  0.0000000E+00  0.0000000E+00  0.3571429E-02
    1      -48.865203    -44.812117   1.000000   1.000000
    2      -48.853565    -44.795786   1.000000   1.000000
    3      -48.836786    -44.795090   1.000000   1.000000
    4      -48.833069    -44.790048   1.000000   1.000000
    5      -48.820103    -44.774694   1.000000   1.000000
    6      -48.816370    -44.769633   1.000000   1.000000
    7      -48.800507    -44.716679   1.000000   1.000000
    8      -48.796704    -44.699712   1.000000   1.000000
    9      -48.784942    -44.638436   1.000000   1.000000
   10      -48.776879    -44.620983   1.000000   1.000000
   11      -48.775129    -44.618452   1.000000   1.000000
   12      -48.771002    -44.601148   1.000000   1.000000
   13      -16.811247    -16.728434   1.000000   1.000000
   14      -16.155411    -16.126324   1.000000   1.000000
   15      -15.926024    -15.756780   1.000000   1.000000
   16      -15.113985    -15.006372   1.000000   1.000000
   17      -14.828455    -14.706094   1.000000   1.000000
   18      -14.774142    -14.638800   1.000000   1.000000
   19      -14.674531    -14.578725   1.000000   1.000000
   20      -14.621957    -14.511667   1.000000   1.000000
   21       -3.744712     -2.988717   1.000000   1.000000
   22       -3.147637     -2.287775   1.000000   1.000000
   23       -3.021057     -2.027573   1.000000   1.000000
   24       -2.848579     -1.807581   1.000000   1.000000
   25       -2.373775     -1.386243   1.000000   1.000000
   26       -2.055179     -1.285110   1.000000   1.000000
   27       -2.011492     -1.161856   1.000000   1.000000
   28       -1.906987     -1.125737   1.000000   1.000000
   29       -1.872597     -0.826660   1.000000   1.000000
   30       -1.684231     -0.781804   1.000000   1.000000
   31       -1.513037     -0.765299   1.000000   1.000000
   32       -0.831839     -0.134614   1.000000   1.000000
   33       -0.747476      0.119420   1.000000   1.000000
   34       -0.319810      0.782657   1.000000   1.000000
   35        0.311236      0.813635   1.000000   1.000000
   36        0.317376      0.953954   1.000000   1.000000
   37        0.388935      1.139505   1.000000   1.000000
   38        0.416475      1.518254   1.000000   1.000000
   39        0.553999      1.766060   1.000000   1.000000
   40        0.749140      2.436214   1.000000   1.000000
   41        0.899463      2.677224   1.000000   1.000000
   42        1.014550      2.737495   1.000000   1.000000
   43        1.019654      3.110660   1.000000   1.000000
   44        1.842755      3.364973   1.000000   1.000000
   45        1.904526      5.278293   1.000000   0.000000
   46        2.196685      5.346122   1.000000   0.000000
   47        2.319106      5.412897   1.000000   0.000000
   48        2.342917      5.793313   1.000000   0.000000
   49        2.376775      5.801388   1.000000   0.000000
   50        2.488285      5.859495   1.000000   0.000000
   51        2.496178      6.054205   1.000000   0.000000
   52        2.639246      6.085250   1.000000   0.000000
   53        3.087992      6.225601   1.000000   0.000000
   54        3.159568      6.418186   1.000000   0.000000
   55        3.254260      6.919457   1.000000   0.000000
   56        3.417565      7.021948   1.000000   0.000000
   57        5.173930      7.187259   0.000000   0.000000
   58        5.613609      7.546205   0.000000   0.000000
   59        6.702494      8.108459   0.000000   0.000000
   60        6.812768      8.235021   0.000000   0.000000
   61        6.817832      8.510916   0.000000   0.000000
   62        6.944791      8.547291   0.000000   0.000000
   63        6.945259      8.696443   0.000000   0.000000
   64        7.431862      9.156069   0.000000   0.000000
   65       11.974974     12.529684   0.000000   0.000000
   66       14.026485     14.493908   0.000000   0.000000
   67       14.689938     15.159038   0.000000   0.000000
   68       15.572851     16.229532   0.000000   0.000000
   69       15.941093     16.493801   0.000000   0.000000
   70       17.166298     17.984938   0.000000   0.000000
   71       17.386154     18.182525   0.000000   0.000000
   72       18.287898     18.743165   0.000000   0.000000
 
  0.1000000E+00  0.5152484E-23  0.0000000E+00  0.7142857E-02
    1      -48.862980    -44.810235   1.000000   1.000000
    2      -48.854476    -44.808163   1.000000   1.000000
    3      -48.847202    -44.804449   1.000000   1.000000
    4      -48.844628    -44.802959   1.000000   1.000000
    5      -48.827245    -44.781027   1.000000   1.000000
    6      -48.826182    -44.777587   1.000000   1.000000
    7      -48.798534    -44.715319   1.000000   1.000000
    8      -48.795038    -44.700250   1.000000   1.000000
    9      -48.783556    -44.635845   1.000000   1.000000
   10      -48.776169    -44.619138   1.000000   1.000000
   11      -48.775591    -44.616828   1.000000   1.000000
   12      -48.770389    -44.600320   1.000000   1.000000
   13      -16.714302    -16.631357   1.000000   1.000000
   14      -16.082740    -16.055336   1.000000   1.000000
   15      -15.854118    -15.682633   1.000000   1.000000
   16      -15.080477    -14.976348   1.000000   1.000000
   17      -14.839791    -14.715649   1.000000   1.000000
   18      -14.785569    -14.664502   1.000000   1.000000
   19      -14.699373    -14.587775   1.000000   1.000000
   20      -14.644547    -14.529942   1.000000   1.000000
   21       -3.602229     -2.865688   1.000000   1.000000
   22       -3.026129     -2.190963   1.000000   1.000000
   23       -2.911159     -1.946650   1.000000   1.000000
   24       -2.740419     -1.721905   1.000000   1.000000
   25       -2.293392     -1.405420   1.000000   1.000000
   26       -2.259918     -1.317981   1.000000   1.000000
   27       -2.163487     -1.316076   1.000000   1.000000
   28       -1.980103     -1.252206   1.000000   1.000000
   29       -1.633937     -0.836370   1.000000   1.000000
   30       -1.585416     -0.699555   1.000000   1.000000
   31       -1.545358     -0.550994   1.000000   1.000000
   32       -0.825376     -0.090780   1.000000   1.000000
   33       -0.757787      0.173166   1.000000   1.000000
   34       -0.458937      0.452016   1.000000   1.000000
   35        0.014874      0.827792   1.000000   1.000000
   36        0.088622      0.864177   1.000000   1.000000
   37        0.426288      0.937259   1.000000   1.000000
   38        0.553259      1.339329   1.000000   1.000000
   39        0.603878      1.801690   1.000000   1.000000
   40        0.630151      1.996624   1.000000   1.000000
   41        0.735635      2.493088   1.000000   1.000000
   42        0.859260      2.805378   1.000000   1.000000
   43        0.948214      3.063351   1.000000   1.000000
   44        1.757908      3.226798   1.000000   1.000000
   45        1.778635      5.394362   1.000000   0.000000
   46        2.096641      5.404277   1.000000   0.000000
   47        2.217216      5.501235   1.000000   0.000000
   48        2.398236      5.910384   1.000000   0.000000
   49        2.493481      5.946181   1.000000   0.000000
   50        2.543007      6.015774   1.000000   0.000000
   51        2.635097      6.018935   1.000000   0.000000
   52        2.658051      6.222933   1.000000   0.000000
   53        3.105092      6.238841   1.000000   0.000000
   54        3.209379      6.401150   1.000000   0.000000
   55        3.301322      6.978192   1.000000   0.000000
   56        3.430640      7.063433   1.000000   0.000000
   57        5.243070      7.145122   0.000000   0.000000
   58        5.657311      7.458414   0.000000   0.000000
   59        6.482199      8.005406   0.000000   0.000000
   60        6.551902      8.016116   0.000000   0.000000
   61        6.679471      8.341335   0.000000   0.000000
   62        6.724039      8.362321   0.000000   0.000000
   63        6.884555      8.657095   0.000000   0.000000
   64        7.374509      9.058431   0.000000   0.000000
   65       12.330070     12.855159   0.000000   0.000000
   66       14.325102     14.781457   0.000000   0.000000
   67       14.944441     15.402560   0.000000   0.000000
   68       15.985452     16.642653   0.000000   0.000000
   69       16.358414     16.915016   0.000000   0.000000
   70       17.469389     18.269159   0.000000   0.000000
   71       17.719724     18.492621   0.000000   0.000000
   72       18.378211     18.801062   0.000000   0.000000
 
  0.2000000E+00 -0.2929913E-23 -0.6617445E-23  0.7142857E-02
    1      -48.873784    -44.841746   1.000000   1.000000
    2      -48.872989    -44.840386   1.000000   1.000000
    3      -48.870582    -44.834759   1.000000   1.000000
    4      -48.866485    -44.827435   1.000000   1.000000
    5      -48.841977    -44.788004   1.000000   1.000000
    6      -48.831606    -44.771550   1.000000   1.000000
    7      -48.793473    -44.713944   1.000000   1.000000
    8      -48.792267    -44.702936   1.000000   1.000000
    9      -48.780124    -44.628706   1.000000   1.000000
   10      -48.777605    -44.614316   1.000000   1.000000
   11      -48.774942    -44.612548   1.000000   1.000000
   12      -48.769033    -44.598408   1.000000   1.000000
   13      -16.441969    -16.359445   1.000000   1.000000
   14      -15.885401    -15.863052   1.000000   1.000000
   15      -15.660027    -15.481455   1.000000   1.000000
   16      -15.004933    -14.914987   1.000000   1.000000
   17      -14.868232    -14.738927   1.000000   1.000000
   18      -14.815598    -14.737579   1.000000   1.000000
   19      -14.768855    -14.611507   1.000000   1.000000
   20      -14.705567    -14.574852   1.000000   1.000000
   21       -3.208192     -2.531431   1.000000   1.000000
   22       -2.701842     -1.956234   1.000000   1.000000
   23       -2.619809     -1.746027   1.000000   1.000000
   24       -2.494978     -1.566090   1.000000   1.000000
   25       -2.431471     -1.527060   1.000000   1.000000
   26       -2.374740     -1.450277   1.000000   1.000000
   27       -2.104823     -1.401023   1.000000   1.000000
   28       -2.094714     -1.175583   1.000000   1.000000
   29       -1.679661     -0.834970   1.000000   1.000000
   30       -1.401098     -0.570960   1.000000   1.000000
   31       -1.276061     -0.408879   1.000000   1.000000
   32       -1.244585     -0.335733   1.000000   1.000000
   33       -1.045571     -0.172194   1.000000   1.000000
   34       -0.608250     -0.082060   1.000000   1.000000
   35       -0.175746      0.757852   1.000000   1.000000
   36       -0.099327      0.761093   1.000000   1.000000
   37        0.004994      1.036520   1.000000   1.000000
   38        0.245322      1.146150   1.000000   1.000000
   39        0.416917      1.266771   1.000000   1.000000
   40        0.666750      1.645811   1.000000   1.000000
   41        0.718012      2.207799   1.000000   1.000000
   42        0.789155      2.662757   1.000000   1.000000
   43        0.865950      2.858545   1.000000   1.000000
   44        1.502105      2.891950   1.000000   1.000000
   45        1.873011      5.492240   1.000000   0.000000
   46        1.894531      5.682908   1.000000   0.000000
   47        2.141325      5.708252   1.000000   0.000000
   48        2.251616      5.961757   1.000000   0.000000
   49        2.450866      6.053284   1.000000   0.000000
   50        2.647473      6.111517   1.000000   0.000000
   51        2.678458      6.155071   1.000000   0.000000
   52        2.758230      6.240474   1.000000   0.000000
   53        3.055134      6.493196   1.000000   0.000000
   54        3.280717      6.503349   1.000000   0.000000
   55        3.414095      6.984043   1.000000   0.000000
   56        3.416058      7.089145   1.000000   0.000000
   57        5.392320      7.197011   0.000000   0.000000
   58        5.488717      7.246019   0.000000   0.000000
   59        5.942945      7.594692   0.000000   0.000000
   60        6.167424      8.005129   0.000000   0.000000
   61        6.321952      8.035418   0.000000   0.000000
   62        6.534396      8.057654   0.000000   0.000000
   63        6.910877      8.549429   0.000000   0.000000
   64        7.145282      8.758439   0.000000   0.000000
   65       13.254575     13.719144   0.000000   0.000000
   66       15.036573     15.461810   0.000000   0.000000
   67       15.548488     15.978979   0.000000   0.000000
   68       17.009753     17.668804   0.000000   0.000000
   69       17.381613     17.950110   0.000000   0.000000
   70       18.251753     18.950931   0.000000   0.000000
   71       18.519635     19.015882   0.000000   0.000000
   72       18.551182     19.274841   0.000000   0.000000
 
  0.3000000E+00  0.2222570E-23 -0.1323489E-22  0.7142857E-02
    1      -48.906453    -44.882985   1.000000   1.000000
    2      -48.905688    -44.882156   1.000000   1.000000
    3      -48.902472    -44.877770   1.000000   1.000000
    4      -48.896548    -44.870070   1.000000   1.000000
    5      -48.834045    -44.772992   1.000000   1.000000
    6      -48.823590    -44.758647   1.000000   1.000000
    7      -48.791476    -44.715443   1.000000   1.000000
    8      -48.788934    -44.709319   1.000000   1.000000
    9      -48.780146    -44.618867   1.000000   1.000000
   10      -48.775952    -44.608313   1.000000   1.000000
   11      -48.773442    -44.607170   1.000000   1.000000
   12      -48.767984    -44.596866   1.000000   1.000000
   13      -16.048422    -15.969031   1.000000   1.000000
   14      -15.621465    -15.605830   1.000000   1.000000
   15      -15.405136    -15.213188   1.000000   1.000000
   16      -14.956736    -14.898554   1.000000   1.000000
   17      -14.899320    -14.846175   1.000000   1.000000
   18      -14.868158    -14.761587   1.000000   1.000000
   19      -14.854005    -14.642984   1.000000   1.000000
   20      -14.785464    -14.621272   1.000000   1.000000
   21       -2.707986     -2.101332   1.000000   1.000000
   22       -2.592991     -1.711741   1.000000   1.000000
   23       -2.505536     -1.662966   1.000000   1.000000
   24       -2.477827     -1.607169   1.000000   1.000000
   25       -2.331867     -1.538549   1.000000   1.000000
   26       -2.282884     -1.448991   1.000000   1.000000
   27       -2.265681     -1.429457   1.000000   1.000000
   28       -2.046087     -1.355161   1.000000   1.000000
   29       -1.613629     -1.009024   1.000000   1.000000
   30       -1.601005     -0.965785   1.000000   1.000000
   31       -1.392487     -0.504540   1.000000   1.000000
   32       -0.994327     -0.397372   1.000000   1.000000
   33       -0.908616     -0.016227   1.000000   1.000000
   34       -0.731534      0.095537   1.000000   1.000000
   35       -0.594014      0.311236   1.000000   1.000000
   36       -0.142899      0.651824   1.000000   1.000000
   37       -0.088659      0.909542   1.000000   1.000000
   38        0.005130      1.085517   1.000000   1.000000
   39        0.210328      1.135809   1.000000   1.000000
   40        0.584125      1.388081   1.000000   1.000000
   41        0.596479      2.074916   1.000000   1.000000
   42        0.853741      2.184823   1.000000   1.000000
   43        0.996958      2.460374   1.000000   1.000000
   44        1.159137      2.579532   1.000000   1.000000
   45        1.645827      5.487293   1.000000   0.000000
   46        1.875199      5.742545   1.000000   0.000000
   47        1.902315      5.828815   1.000000   0.000000
   48        2.043192      6.069864   1.000000   0.000000
   49        2.290883      6.094907   1.000000   0.000000
   50        2.358511      6.096530   1.000000   0.000000
   51        2.518010      6.218783   1.000000   0.000000
   52        2.706055      6.244058   1.000000   0.000000
   53        3.143716      6.648079   1.000000   0.000000
   54        3.222005      6.657955   1.000000   0.000000
   55        3.322457      6.886186   1.000000   0.000000
   56        3.490824      6.996132   1.000000   0.000000
   57        5.193327      7.153816   0.000000   0.000000
   58        5.462241      7.323883   0.000000   0.000000
   59        5.551600      7.354294   0.000000   0.000000
   60        5.784530      7.727617   0.000000   0.000000
   61        6.201336      8.003554   0.000000   0.000000
   62        6.807466      8.301227   0.000000   0.000000
   63        6.823612      8.381446   0.000000   0.000000
   64        6.986503      8.504520   0.000000   0.000000
   65       14.469881     14.878455   0.000000   0.000000
   66       15.854231     16.250001   0.000000   0.000000
   67       16.217868     16.623177   0.000000   0.000000
   68       18.232591     18.894307   0.000000   0.000000
   69       18.559194     19.149034   0.000000   0.000000
   70       18.709944     19.185084   0.000000   0.000000
   71       18.900694     19.435676   0.000000   0.000000
   72       19.065181     19.797036   0.000000   0.000000
 
  0.4000000E+00 -0.5859827E-23 -0.1323489E-22  0.7142857E-02
    1      -48.932583    -44.916285   1.000000   1.000000
    2      -48.930380    -44.913459   1.000000   1.000000
    3      -48.930132    -44.913310   1.000000   1.000000
    4      -48.925230    -44.906922   1.000000   1.000000
    5      -48.819799    -44.753915   1.000000   1.000000
    6      -48.812592    -44.744050   1.000000   1.000000
    7      -48.794866    -44.721018   1.000000   1.000000
    8      -48.794261    -44.720207   1.000000   1.000000
    9      -48.776278    -44.608980   1.000000   1.000000
   10      -48.772521    -44.603358   1.000000   1.000000
   11      -48.771656    -44.602800   1.000000   1.000000
   12      -48.768442    -44.597437   1.000000   1.000000
   13      -15.618938    -15.548456   1.000000   1.000000
   14      -15.367766    -15.353297   1.000000   1.000000
   15      -15.184038    -14.999589   1.000000   1.000000
   16      -15.025604    -14.986388   1.000000   1.000000
   17      -14.972333    -14.939036   1.000000   1.000000
   18      -14.914579    -14.764079   1.000000   1.000000
   19      -14.897215    -14.686876   1.000000   1.000000
   20      -14.853420    -14.669505   1.000000   1.000000
   21       -3.014188     -2.170700   1.000000   1.000000
   22       -2.873229     -2.078196   1.000000   1.000000
   23       -2.526730     -1.785070   1.000000   1.000000
   24       -2.508555     -1.611633   1.000000   1.000000
   25       -2.394236     -1.510057   1.000000   1.000000
   26       -2.140758     -1.392789   1.000000   1.000000
   27       -1.968442     -1.384164   1.000000   1.000000
   28       -1.859157     -1.123767   1.000000   1.000000
   29       -1.500170     -0.999815   1.000000   1.000000
   30       -1.300494     -0.953836   1.000000   1.000000
   31       -1.216149     -0.649185   1.000000   1.000000
   32       -1.107352     -0.336389   1.000000   1.000000
   33       -0.755190      0.132013   1.000000   1.000000
   34       -0.526079      0.283208   1.000000   1.000000
   35       -0.391212      0.406234   1.000000   1.000000
   36       -0.122249      0.490114   1.000000   1.000000
   37       -0.052124      0.863574   1.000000   1.000000
   38       -0.011385      0.909594   1.000000   1.000000
   39        0.296855      1.130869   1.000000   1.000000
   40        0.315740      1.544022   1.000000   1.000000
   41        0.500061      1.601310   1.000000   1.000000
   42        0.902657      1.814247   1.000000   1.000000
   43        0.962273      2.119464   1.000000   1.000000
   44        1.072460      2.171661   1.000000   1.000000
   45        1.377978      5.513137   1.000000   0.000000
   46        1.577898      5.634278   1.000000   0.000000
   47        1.606562      5.786519   1.000000   0.000000
   48        1.659924      5.882480   1.000000   0.000000
   49        1.885579      6.005493   1.000000   0.000000
   50        1.990376      6.157329   1.000000   0.000000
   51        2.275450      6.321779   1.000000   0.000000
   52        2.336287      6.358814   1.000000   0.000000
   53        3.227574      6.603720   1.000000   0.000000
   54        3.265837      6.736767   1.000000   0.000000
   55        3.271804      6.891874   1.000000   0.000000
   56        3.483350      6.948513   1.000000   0.000000
   57        5.139632      7.149991   0.000000   0.000000
   58        5.362761      7.214092   0.000000   0.000000
   59        5.478397      7.414150   0.000000   0.000000
   60        5.606734      7.577353   0.000000   0.000000
   61        6.340113      8.123775   0.000000   0.000000
   62        6.592155      8.199664   0.000000   0.000000
   63        7.057946      8.559346   0.000000   0.000000
   64        7.106864      8.595684   0.000000   0.000000
   65       15.754843     16.126017   0.000000   0.000000
   66       16.555704     16.946595   0.000000   0.000000
   67       16.742301     17.139118   0.000000   0.000000
   68       18.077947     18.492839   0.000000   0.000000
   69       18.586194     19.136662   0.000000   0.000000
   70       18.704758     19.250660   0.000000   0.000000
   71       18.994757     19.511195   0.000000   0.000000
   72       19.464660     20.083239   0.000000   0.000000
 
  0.5000000E+00 -0.7073432E-24 -0.2646978E-22  0.3571429E-02
    1      -48.941639    -44.927892   1.000000   1.000000
    2      -48.941637    -44.927890   1.000000   1.000000
    3      -48.938038    -44.923192   1.000000   1.000000
    4      -48.938036    -44.923190   1.000000   1.000000
    5      -48.805717    -44.735481   1.000000   1.000000
    6      -48.805715    -44.735481   1.000000   1.000000
    7      -48.802343    -44.730845   1.000000   1.000000
    8      -48.802341    -44.730844   1.000000   1.000000
    9      -48.771261    -44.601421   1.000000   1.000000
   10      -48.771259    -44.601419   1.000000   1.000000
   11      -48.771004    -44.601287   1.000000   1.000000
   12      -48.771003    -44.601285   1.000000   1.000000
   13      -15.252884    -15.199553   1.000000   1.000000
   14      -15.252878    -15.199547   1.000000   1.000000
   15      -15.183207    -15.147872   1.000000   1.000000
   16      -15.183202    -15.147867   1.000000   1.000000
   17      -14.962416    -14.776311   1.000000   1.000000
   18      -14.962414    -14.776310   1.000000   1.000000
   19      -14.899353    -14.729894   1.000000   1.000000
   20      -14.899352    -14.729893   1.000000   1.000000
   21       -3.146653     -2.345432   1.000000   1.000000
   22       -3.146651     -2.345431   1.000000   1.000000
   23       -2.504512     -1.737103   1.000000   1.000000
   24       -2.504505     -1.737100   1.000000   1.000000
   25       -2.312520     -1.332256   1.000000   1.000000
   26       -2.312516     -1.332248   1.000000   1.000000
   27       -1.777686     -1.135478   1.000000   1.000000
   28       -1.777684     -1.135473   1.000000   1.000000
   29       -1.319418     -0.905718   1.000000   1.000000
   30       -1.319417     -0.905712   1.000000   1.000000
   31       -1.002335     -0.655487   1.000000   1.000000
   32       -1.002331     -0.655482   1.000000   1.000000
   33       -0.412818      0.219266   1.000000   1.000000
   34       -0.412806      0.219271   1.000000   1.000000
   35       -0.378856      0.683317   1.000000   1.000000
   36       -0.378851      0.683326   1.000000   1.000000
   37       -0.127783      0.857733   1.000000   1.000000
   38       -0.127770      0.857736   1.000000   1.000000
   39        0.397944      1.209780   1.000000   1.000000
   40        0.397952      1.209786   1.000000   1.000000
   41        0.898105      1.744414   1.000000   1.000000
   42        0.898111      1.744419   1.000000   1.000000
   43        1.088273      1.837691   1.000000   1.000000
   44        1.088277      1.837695   1.000000   1.000000
   45        1.337756      5.664643   1.000000   0.000000
   46        1.337758      5.664647   1.000000   0.000000
   47        1.405423      5.677220   1.000000   0.000000
   48        1.405424      5.677223   1.000000   0.000000
   49        1.485621      6.120353   1.000000   0.000000
   50        1.485630      6.120354   1.000000   0.000000
   51        2.178293      6.201467   1.000000   0.000000
   52        2.178298      6.201470   1.000000   0.000000
   53        3.253552      6.792417   1.000000   0.000000
   54        3.253554      6.792421   1.000000   0.000000
   55        3.400242      6.862673   1.000000   0.000000
   56        3.400245      6.862676   1.000000   0.000000
   57        5.237084      7.188572   0.000000   0.000000
   58        5.237087      7.188575   0.000000   0.000000
   59        5.523319      7.486646   0.000000   0.000000
   60        5.523324      7.486649   0.000000   0.000000
   61        6.474064      8.187161   0.000000   0.000000
   62        6.474068      8.187166   0.000000   0.000000
   63        7.162099      8.660504   0.000000   0.000000
   64        7.162107      8.660510   0.000000   0.000000
   65       16.922071     17.319449   0.000000   0.000000
   66       16.922096     17.319473   0.000000   0.000000
   67       16.986457     17.351407   0.000000   0.000000
   68       16.986461     17.351410   0.000000   0.000000
   69       18.299368     18.824356   0.000000   0.000000
   70       18.299400     18.824388   0.000000   0.000000
   71       19.458181     20.005322   0.000000   0.000000
   72       19.458194     20.005337   0.000000   0.000000
 
  0.8006591E-24  0.1428571E+00 -0.7940934E-22  0.7142857E-02
    1      -48.864746    -44.811406   1.000000   1.000000
    2      -48.854307    -44.796705   1.000000   1.000000
    3      -48.836603    -44.794839   1.000000   1.000000
    4      -48.833245    -44.790289   1.000000   1.000000
    5      -48.819909    -44.774431   1.000000   1.000000
    6      -48.816557    -44.769883   1.000000   1.000000
    7      -48.799987    -44.716006   1.000000   1.000000
    8      -48.796747    -44.700795   1.000000   1.000000
    9      -48.785048    -44.637368   1.000000   1.000000
   10      -48.777633    -44.619786   1.000000   1.000000
   11      -48.774623    -44.619387   1.000000   1.000000
   12      -48.770909    -44.601983   1.000000   1.000000
   13      -16.763087    -16.681051   1.000000   1.000000
   14      -16.160631    -16.128072   1.000000   1.000000
   15      -15.887666    -15.719826   1.000000   1.000000
   16      -15.154033    -15.044025   1.000000   1.000000
   17      -14.828149    -14.710451   1.000000   1.000000
   18      -14.788576    -14.652752   1.000000   1.000000
   19      -14.696977    -14.597818   1.000000   1.000000
   20      -14.656554    -14.548917   1.000000   1.000000
   21       -3.717056     -2.948402   1.000000   1.000000
   22       -3.036223     -2.188401   1.000000   1.000000
   23       -3.035859     -2.074564   1.000000   1.000000
   24       -2.897387     -1.864820   1.000000   1.000000
   25       -2.437480     -1.465495   1.000000   1.000000
   26       -2.046046     -1.247989   1.000000   1.000000
   27       -1.976106     -1.155882   1.000000   1.000000
   28       -1.893409     -1.126266   1.000000   1.000000
   29       -1.756450     -0.828796   1.000000   1.000000
   30       -1.667160     -0.777458   1.000000   1.000000
   31       -1.526270     -0.548424   1.000000   1.000000
   32       -0.830628     -0.100751   1.000000   1.000000
   33       -0.730765      0.065104   1.000000   1.000000
   34       -0.305809      0.803220   1.000000   1.000000
   35        0.169037      0.948352   1.000000   1.000000
   36        0.253144      1.026372   1.000000   1.000000
   37        0.320502      1.130651   1.000000   1.000000
   38        0.577901      1.562496   1.000000   1.000000
   39        0.711950      1.805681   1.000000   1.000000
   40        0.735856      2.378015   1.000000   1.000000
   41        0.842279      2.500396   1.000000   1.000000
   42        1.011958      2.600698   1.000000   1.000000
   43        1.073309      2.947811   1.000000   1.000000
   44        1.823618      3.182929   1.000000   1.000000
   45        1.894103      5.295633   1.000000   0.000000
   46        2.020961      5.379249   1.000000   0.000000
   47        2.201283      5.429067   1.000000   0.000000
   48        2.343513      5.767867   1.000000   0.000000
   49        2.386614      5.770813   1.000000   0.000000
   50        2.407818      5.789389   1.000000   0.000000
   51        2.586615      6.100393   1.000000   0.000000
   52        2.696981      6.136664   1.000000   0.000000
   53        2.985639      6.220123   1.000000   0.000000
   54        3.179217      6.510047   1.000000   0.000000
   55        3.189031      6.923892   1.000000   0.000000
   56        3.512404      7.084781   1.000000   0.000000
   57        5.178206      7.212409   0.000000   0.000000
   58        5.708781      7.576450   0.000000   0.000000
   59        6.686476      8.098960   0.000000   0.000000
   60        6.688618      8.240146   0.000000   0.000000
   61        6.825576      8.525994   0.000000   0.000000
   62        6.924126      8.529231   0.000000   0.000000
   63        6.959059      8.588211   0.000000   0.000000
   64        7.331731      9.052829   0.000000   0.000000
   65       12.252342     12.804737   0.000000   0.000000
   66       14.194213     14.658706   0.000000   0.000000
   67       14.852963     15.325280   0.000000   0.000000
   68       15.552610     16.212963   0.000000   0.000000
   69       16.049863     16.641837   0.000000   0.000000
   70       17.144492     17.806413   0.000000   0.000000
   71       17.258023     18.051758   0.000000   0.000000
   72       18.413055     19.079007   0.000000   0.000000
 
  0.1000000E+00  0.1428571E+00 -0.1323489E-21  0.7142857E-02
    1      -48.862608    -44.809776   1.000000   1.000000