 vasp.5.4.4.18Apr17-6-g9f103f2a35 (build Nov 08 2022 17:27:33) complex          
  
 executed on             LinuxIFC date 2022.11.22  23:35:36
 running on   16 total cores
 distrk:  each k-point on   16 cores,    1 groups
 distr:  one band on NCORES_PER_BAND=   4 cores,    4 groups


--------------------------------------------------------------------------------------------------------


 INCAR:
 POTCAR:    PAW_PBE Mn_pv 02Aug2007               
 POTCAR:    PAW_PBE O 08Apr2002                   
 POTCAR:    PAW_PBE Mn_pv 02Aug2007               
   VRHFIN =Mn: 3p4s3d                                                           
   LEXCH  = PE                                                                  
   EATOM  =  2025.2664 eV,  148.8529 Ry                                         
                                                                                
   TITEL  = PAW_PBE Mn_pv 02Aug2007                                             
   LULTRA =        F    use ultrasoft PP ?                                      
   IUNSCR =        1    unscreen: 0-lin 1-nonlin 2-no                           
   RPACOR =    2.080    partial core radius                                     
   POMASS =   54.938; ZVAL   =   13.000    mass and valenz                      
   RCORE  =    2.300    outmost cutoff radius                                   
   RWIGS  =    2.500; RWIGS  =    1.323    wigner-seitz radius (au A)           
   ENMAX  =  269.864; ENMIN  =  202.398 eV                                      
   ICORE  =        3    local potential                                         
   LCOR   =        T    correct aug charges                                     
   LPAW   =        T    paw PP                                                  
   EAUG   =  569.085                                                            
   DEXC   =    0.000                                                            
   RMAX   =    2.343    core radius for proj-oper                               
   RAUG   =    1.300    factor for augmentation sphere                          
   RDEP   =    2.338    radius for radial grids                                 
   RDEPT  =    1.798    core radius for aug-charge                              
                                                                                
   Atomic configuration                                                         
    8 entries                                                                   
     n  l   j            E        occ.                                          
     1  0  0.50     -6424.8287   2.0000                                         
     2  0  0.50      -739.1154   2.0000                                         
     2  1  1.50      -625.3949   6.0000                                         
     3  0  0.50       -81.6100   2.0000                                         
     3  1  1.50       -50.4667   6.0000                                         
     3  2  2.50        -3.3745   6.0000                                         
     4  0  0.50        -4.1331   1.0000                                         
     4  3  2.50        -1.3606   0.0000                                         
   Description                                                                  
     l       E           TYP  RCUT    TYP  RCUT                                 
     1    -50.4666628     23  2.000                                             
     1     -1.3605826     23  2.000                                             
     2     -3.3744729     23  2.300                                             
     2     -4.7350555     23  2.300                                             
     0     -4.1331431     23  2.300                                             
     0      7.6656591     23  2.300                                             
     3      9.5240782     23  2.300                                             
  local pseudopotential read in
  partial core-charges read in
  partial kinetic energy density read in
  atomic valenz-charges read in
  non local Contribution for L=           1  read in
    real space projection operators read in
  non local Contribution for L=           1  read in
    real space projection operators read in
  non local Contribution for L=           2  read in
    real space projection operators read in
  non local Contribution for L=           2  read in
    real space projection operators read in
  non local Contribution for L=           0  read in
    real space projection operators read in
  non local Contribution for L=           0  read in
    real space projection operators read in
    PAW grid and wavefunctions read in
 
   number of l-projection  operators is LMAX  =           6
   number of lm-projection operators is LMMAX =          18
 
 POTCAR:    PAW_PBE O 08Apr2002                   
   VRHFIN =O: s2p4                                                              
   LEXCH  = PE                                                                  
   EATOM  =   432.3788 eV,   31.7789 Ry                                         
                                                                                
   TITEL  = PAW_PBE O 08Apr2002                                                 
   LULTRA =        F    use ultrasoft PP ?                                      
   IUNSCR =        1    unscreen: 0-lin 1-nonlin 2-no                           
   RPACOR =    1.200    partial core radius                                     
   POMASS =   16.000; ZVAL   =    6.000    mass and valenz                      
   RCORE  =    1.520    outmost cutoff radius                                   
   RWIGS  =    1.550; RWIGS  =    0.820    wigner-seitz radius (au A)           
   ENMAX  =  400.000; ENMIN  =  300.000 eV                                      
   ICORE  =        2    local potential                                         
   LCOR   =        T    correct aug charges                                     
   LPAW   =        T    paw PP                                                  
   EAUG   =  605.392                                                            
   DEXC   =    0.000                                                            
   RMAX   =    1.553    core radius for proj-oper                               
   RAUG   =    1.300    factor for augmentation sphere                          
   RDEP   =    1.550    radius for radial grids                                 
   RDEPT  =    1.329    core radius for aug-charge                              
                                                                                
   Atomic configuration                                                         
    4 entries                                                                   
     n  l   j            E        occ.                                          
     1  0  0.50      -514.6923   2.0000                                         
     2  0  0.50       -23.9615   2.0000                                         
     2  1  0.50        -9.0305   4.0000                                         
     3  2  1.50        -9.5241   0.0000                                         
   Description                                                                  
     l       E           TYP  RCUT    TYP  RCUT                                 
     0    -23.9615318     23  1.200                                             
     0     -9.5240782     23  1.200                                             
     1     -9.0304911     23  1.520                                             
     1      8.1634956     23  1.520                                             
     2     -9.5240782      7  1.500                                             
  local pseudopotential read in
  partial core-charges read in
  partial kinetic energy density read in
  kinetic energy density of atom read in
  atomic valenz-charges read in
  non local Contribution for L=           0  read in
    real space projection operators read in
  non local Contribution for L=           0  read in
    real space projection operators read in
  non local Contribution for L=           1  read in
    real space projection operators read in
  non local Contribution for L=           1  read in
    real space projection operators read in
    PAW grid and wavefunctions read in
 
   number of l-projection  operators is LMAX  =           4
   number of lm-projection operators is LMMAX =           8
 
  PAW_PBE Mn_pv 02Aug2007               :
 energy of atom  1       EATOM=-2025.2664
 kinetic energy error for atom=    0.0058 (will be added to EATOM!!)
  PAW_PBE O 08Apr2002                   :
 energy of atom  2       EATOM= -432.3788
 kinetic energy error for atom=    0.0208 (will be added to EATOM!!)
 
 
 POSCAR: Mn4 O8                                  
  positions in direct lattice
  velocities in cartesian coordinates

 METAGGA = R2SCA    LMAXTAU =  6    LMIXTAU =  T

 exchange correlation table for  LEXCH =        8
   RHO(1)=    0.500       N(1)  =     2000
   RHO(2)=  100.500       N(2)  =     4000

 VTST: version 3.2, (02/03/18)

 CHAIN: initializing optimizer
 
 OPT: Using VASP Conjugate-Gradient optimizer
 CHAIN: Read ICHAIN            0
 
 POSCAR: Mn4 O8                                  
  positions in direct lattice
  velocities in cartesian coordinates
 


--------------------------------------------------------------------------------------------------------


 ion  position               nearest neighbor table
   1  0.250  0.037  0.866-  12 1.88  12 1.88  10 1.90   7 1.90   6 1.90   6 1.90   2 2.87   2 2.87

   2  0.750  0.963  0.134-   9 1.88   9 1.88  11 1.90   6 1.90   7 1.90   7 1.90   1 2.87   1 2.87

   3  0.750  0.537  0.634-  10 1.88  10 1.88  12 1.90   8 1.90   5 1.90   5 1.90   4 2.87   4 2.87

   4  0.250  0.463  0.366-  11 1.88  11 1.88   9 1.90   5 1.90   8 1.90   8 1.90   3 2.87   3 2.87

   5  0.250  0.716  0.530-   4 1.90   3 1.90   3 1.90
   6  0.750  0.216  0.970-   2 1.90   1 1.90   1 1.90
   7  0.250  0.784  0.030-   1 1.90   2 1.90   2 1.90
   8  0.750  0.284  0.470-   3 1.90   4 1.90   4 1.90
   9  0.250  0.157  0.226-   2 1.88   2 1.88   4 1.90
  10  0.250  0.343  0.726-   3 1.88   3 1.88   1 1.90
  11  0.750  0.657  0.274-   4 1.88   4 1.88   2 1.90
  12  0.750  0.843  0.774-   1 1.88   1 1.88   3 1.90
 

IMPORTANT INFORMATION: All symmetrisations will be switched off!
NOSYMM: (Re-)initialisation of all symmetry stuff for point group C_1.

 
 

Automatic generation of k-mesh.
 generate k-points for:   10    7    4
Space group operators:
 irot       det(A)        alpha          n_x          n_y          n_z        tau_x        tau_y        tau_z
    1     1.000000     0.000000     1.000000     0.000000     0.000000     0.000000     0.000000     0.000000
 
 Subroutine IBZKPT returns following result:
 ===========================================
 
 Found    142 irreducible k-points:
 
 Following reciprocal coordinates:
            Coordinates               Weight
  0.000000  0.000000  0.000000      1.000000
  0.100000  0.000000  0.000000      2.000000
  0.200000 -0.000000 -0.000000      2.000000
  0.300000  0.000000 -0.000000      2.000000
  0.400000 -0.000000 -0.000000      2.000000
  0.500000 -0.000000 -0.000000      1.000000
  0.000000  0.142857 -0.000000      2.000000
  0.100000  0.142857 -0.000000      2.000000
  0.200000  0.142857 -0.000000      2.000000
  0.300000  0.142857 -0.000000      2.000000
  0.400000  0.142857 -0.000000      2.000000
  0.500000  0.142857 -0.000000      2.000000
 -0.400000  0.142857 -0.000000      2.000000
 -0.300000  0.142857 -0.000000      2.000000
 -0.200000  0.142857 -0.000000      2.000000
 -0.100000  0.142857 -0.000000      2.000000
 -0.000000  0.285714 -0.000000      2.000000
  0.100000  0.285714 -0.000000      2.000000
  0.200000  0.285714 -0.000000      2.000000
  0.300000  0.285714 -0.000000      2.000000
  0.400000  0.285714 -0.000000      2.000000
  0.500000  0.285714 -0.000000      2.000000
 -0.400000  0.285714 -0.000000      2.000000
 -0.300000  0.285714 -0.000000      2.000000
 -0.200000  0.285714 -0.000000      2.000000
 -0.100000  0.285714 -0.000000      2.000000
  0.000000  0.428571 -0.000000      2.000000
  0.100000  0.428571 -0.000000      2.000000
  0.200000  0.428571 -0.000000      2.000000
  0.300000  0.428571 -0.000000      2.000000
  0.400000  0.428571 -0.000000      2.000000
  0.500000  0.428571 -0.000000      2.000000
 -0.400000  0.428571 -0.000000      2.000000
 -0.300000  0.428571 -0.000000      2.000000
 -0.200000  0.428571 -0.000000      2.000000
 -0.100000  0.428571 -0.000000      2.000000
  0.000000  0.000000  0.250000      2.000000
  0.100000  0.000000  0.250000      2.000000
  0.200000 -0.000000  0.250000      2.000000
  0.300000 -0.000000  0.250000      2.000000
  0.400000 -0.000000  0.250000      2.000000
  0.500000  0.000000  0.250000      2.000000
 -0.400000  0.000000  0.250000      2.000000
 -0.300000 -0.000000  0.250000      2.000000
 -0.200000 -0.000000  0.250000      2.000000
 -0.100000  0.000000  0.250000      2.000000
 -0.000000  0.142857  0.250000      2.000000
  0.100000  0.142857  0.250000      2.000000
  0.200000  0.142857  0.250000      2.000000
  0.300000  0.142857  0.250000      2.000000
  0.400000  0.142857  0.250000      2.000000
  0.500000  0.142857  0.250000      2.000000
 -0.400000  0.142857  0.250000      2.000000
 -0.300000  0.142857  0.250000      2.000000
 -0.200000  0.142857  0.250000      2.000000
 -0.100000  0.142857  0.250000      2.000000
  0.000000  0.285714  0.250000      2.000000
  0.100000  0.285714  0.250000      2.000000
  0.200000  0.285714  0.250000      2.000000
  0.300000  0.285714  0.250000      2.000000
  0.400000  0.285714  0.250000      2.000000
  0.500000  0.285714  0.250000      2.000000
 -0.400000  0.285714  0.250000      2.000000
 -0.300000  0.285714  0.250000      2.000000
 -0.200000  0.285714  0.250000      2.000000
 -0.100000  0.285714  0.250000      2.000000
  0.000000  0.428571  0.250000      2.000000
  0.100000  0.428571  0.250000      2.000000
  0.200000  0.428571  0.250000      2.000000
  0.300000  0.428571  0.250000      2.000000
  0.400000  0.428571  0.250000      2.000000
  0.500000  0.428571  0.250000      2.000000
 -0.400000  0.428571  0.250000      2.000000
 -0.300000  0.428571  0.250000      2.000000
 -0.200000  0.428571  0.250000      2.000000
 -0.100000  0.428571  0.250000      2.000000
 -0.000000 -0.428571  0.250000      2.000000
  0.100000 -0.428571  0.250000      2.000000
  0.200000 -0.428571  0.250000      2.000000
  0.300000 -0.428571  0.250000      2.000000
  0.400000 -0.428571  0.250000      2.000000
  0.500000 -0.428571  0.250000      2.000000
 -0.400000 -0.428571  0.250000      2.000000
 -0.300000 -0.428571  0.250000      2.000000
 -0.200000 -0.428571  0.250000      2.000000
 -0.100000 -0.428571  0.250000      2.000000
 -0.000000 -0.285714  0.250000      2.000000
  0.100000 -0.285714  0.250000      2.000000
  0.200000 -0.285714  0.250000      2.000000
  0.300000 -0.285714  0.250000      2.000000
  0.400000 -0.285714  0.250000      2.000000
  0.500000 -0.285714  0.250000      2.000000
 -0.400000 -0.285714  0.250000      2.000000
 -0.300000 -0.285714  0.250000      2.000000
 -0.200000 -0.285714  0.250000      2.000000
 -0.100000 -0.285714  0.250000      2.000000
 -0.000000 -0.142857  0.250000      2.000000
  0.100000 -0.142857  0.250000      2.000000
  0.200000 -0.142857  0.250000      2.000000
  0.300000 -0.142857  0.250000      2.000000
  0.400000 -0.142857  0.250000      2.000000
  0.500000 -0.142857  0.250000      2.000000
 -0.400000 -0.142857  0.250000      2.000000
 -0.300000 -0.142857  0.250000      2.000000
 -0.200000 -0.142857  0.250000      2.000000
 -0.100000 -0.142857  0.250000      2.000000
  0.000000  0.000000  0.500000      1.000000
  0.100000  0.000000  0.500000      2.000000
  0.200000  0.000000  0.500000      2.000000
  0.300000  0.000000  0.500000      2.000000
  0.400000 -0.000000  0.500000      2.000000
  0.500000 -0.000000  0.500000      1.000000
 -0.000000  0.142857  0.500000      2.000000
  0.100000  0.142857  0.500000      2.000000
  0.200000  0.142857  0.500000      2.000000
  0.300000  0.142857  0.500000      2.000000
  0.400000  0.142857  0.500000      2.000000
  0.500000  0.142857  0.500000      2.000000
 -0.400000  0.142857  0.500000      2.000000
 -0.300000  0.142857  0.500000      2.000000
 -0.200000  0.142857  0.500000      2.000000
 -0.100000  0.142857  0.500000      2.000000
 -0.000000  0.285714  0.500000      2.000000
  0.100000  0.285714  0.500000      2.000000
  0.200000  0.285714  0.500000      2.000000
  0.300000  0.285714  0.500000      2.000000
  0.400000  0.285714  0.500000      2.000000
  0.500000  0.285714  0.500000      2.000000
 -0.400000  0.285714  0.500000      2.000000
 -0.300000  0.285714  0.500000      2.000000
 -0.200000  0.285714  0.500000      2.000000
 -0.100000  0.285714  0.500000      2.000000
  0.000000  0.428571  0.500000      2.000000
  0.100000  0.428571  0.500000      2.000000
  0.200000  0.428571  0.500000      2.000000
  0.300000  0.428571  0.500000      2.000000
  0.400000  0.428571  0.500000      2.000000
  0.500000  0.428571  0.500000      2.000000
 -0.400000  0.428571  0.500000      2.000000
 -0.300000  0.428571  0.500000      2.000000
 -0.200000  0.428571  0.500000      2.000000
 -0.100000  0.428571  0.500000      2.000000
 
 Following cartesian coordinates:
            Coordinates               Weight
  0.000000  0.000000  0.000000      1.000000
  0.034982  0.000000  0.000000      2.000000
  0.069964  0.000000  0.000000      2.000000
  0.104946  0.000000  0.000000      2.000000
  0.139928  0.000000  0.000000      2.000000
  0.174910  0.000000  0.000000      1.000000
 -0.000000  0.031267  0.000000      2.000000
  0.034982  0.031267  0.000000      2.000000
  0.069964  0.031267  0.000000      2.000000
  0.104946  0.031267  0.000000      2.000000
  0.139928  0.031267  0.000000      2.000000
  0.174910  0.031267  0.000000      2.000000
 -0.139928  0.031267  0.000000      2.000000
 -0.104946  0.031267  0.000000      2.000000
 -0.069964  0.031267  0.000000      2.000000
 -0.034982  0.031267  0.000000      2.000000
 -0.000000  0.062533  0.000000      2.000000
  0.034982  0.062533  0.000000      2.000000
  0.069964  0.062533  0.000000      2.000000
  0.104946  0.062533  0.000000      2.000000
  0.139928  0.062533  0.000000      2.000000
  0.174910  0.062533  0.000000      2.000000
 -0.139928  0.062533  0.000000      2.000000
 -0.104946  0.062533  0.000000      2.000000
 -0.069964  0.062533  0.000000      2.000000
 -0.034982  0.062533  0.000000      2.000000
 -0.000000  0.093800  0.000000      2.000000
  0.034982  0.093800  0.000000      2.000000
  0.069964  0.093800  0.000000      2.000000
  0.104946  0.093800  0.000000      2.000000
  0.139928  0.093800  0.000000      2.000000
  0.174910  0.093800  0.000000      2.000000
 -0.139928  0.093800  0.000000      2.000000
 -0.104946  0.093800  0.000000      2.000000
 -0.069964  0.093800  0.000000      2.000000
 -0.034982  0.093800  0.000000      2.000000
  0.000000 -0.000000  0.027247      2.000000
  0.034982  0.000000  0.027247      2.000000
  0.069964  0.000000  0.027247      2.000000
  0.104946  0.000000  0.027247      2.000000
  0.139928  0.000000  0.027247      2.000000
  0.174910  0.000000  0.027247      2.000000
 -0.139928 -0.000000  0.027247      2.000000
 -0.104946 -0.000000  0.027247      2.000000
 -0.069964 -0.000000  0.027247      2.000000
 -0.034982 -0.000000  0.027247      2.000000
  0.000000  0.031267  0.027247      2.000000
  0.034982  0.031267  0.027247      2.000000
  0.069964  0.031267  0.027247      2.000000
  0.104946  0.031267  0.027247      2.000000
  0.139928  0.031267  0.027247      2.000000
  0.174910  0.031267  0.027247      2.000000
 -0.139928  0.031267  0.027247      2.000000
 -0.104946  0.031267  0.027247      2.000000
 -0.069964  0.031267  0.027247      2.000000
 -0.034982  0.031267  0.027247      2.000000
 -0.000000  0.062533  0.027247      2.000000
  0.034982  0.062533  0.027247      2.000000
  0.069964  0.062533  0.027247      2.000000
  0.104946  0.062533  0.027248      2.000000
  0.139928  0.062533  0.027248      2.000000
  0.174910  0.062533  0.027248      2.000000
 -0.139928  0.062533  0.027247      2.000000
 -0.104946  0.062533  0.027247      2.000000
 -0.069964  0.062533  0.027247      2.000000
 -0.034982  0.062533  0.027247      2.000000
 -0.000000  0.093800  0.027248      2.000000
  0.034982  0.093800  0.027248      2.000000
  0.069964  0.093800  0.027248      2.000000
  0.104946  0.093800  0.027248      2.000000
  0.139928  0.093800  0.027248      2.000000
  0.174910  0.093800  0.027248      2.000000
 -0.139928  0.093800  0.027247      2.000000
 -0.104946  0.093800  0.027248      2.000000
 -0.069964  0.093800  0.027248      2.000000
 -0.034982  0.093800  0.027248      2.000000
  0.000000 -0.093800  0.027247      2.000000
  0.034982 -0.093800  0.027247      2.000000
  0.069964 -0.093800  0.027247      2.000000
  0.104946 -0.093800  0.027247      2.000000
  0.139928 -0.093800  0.027247      2.000000
  0.174910 -0.093800  0.027247      2.000000
 -0.139928 -0.093800  0.027247      2.000000
 -0.104946 -0.093800  0.027247      2.000000
 -0.069964 -0.093800  0.027247      2.000000
 -0.034982 -0.093800  0.027247      2.000000
  0.000000 -0.062533  0.027247      2.000000
  0.034982 -0.062533  0.027247      2.000000
  0.069964 -0.062533  0.027247      2.000000
  0.104946 -0.062533  0.027247      2.000000
  0.139928 -0.062533  0.027247      2.000000
  0.174910 -0.062533  0.027247      2.000000
 -0.139928 -0.062533  0.027247      2.000000
 -0.104946 -0.062533  0.027247      2.000000
 -0.069964 -0.062533  0.027247      2.000000
 -0.034982 -0.062533  0.027247      2.000000
  0.000000 -0.031267  0.027247      2.000000
  0.034982 -0.031267  0.027247      2.000000
  0.069964 -0.031267  0.027247      2.000000
  0.104946 -0.031267  0.027247      2.000000
  0.139928 -0.031267  0.027247      2.000000
  0.174910 -0.031267  0.027247      2.000000
 -0.139928 -0.031267  0.027247      2.000000
 -0.104946 -0.031267  0.027247      2.000000
 -0.069964 -0.031267  0.027247      2.000000
 -0.034982 -0.031267  0.027247      2.000000
  0.000000 -0.000000  0.054495      1.000000
  0.034982  0.000000  0.054495      2.000000
  0.069964  0.000000  0.054495      2.000000
  0.104946  0.000000  0.054495      2.000000
  0.139928  0.000000  0.054495      2.000000
  0.174910  0.000000  0.054495      1.000000
  0.000000  0.031267  0.054495      2.000000
  0.034982  0.031267  0.054495      2.000000
  0.069964  0.031267  0.054495      2.000000
  0.104946  0.031267  0.054495      2.000000
  0.139928  0.031267  0.054495      2.000000
  0.174910  0.031267  0.054495      2.000000
 -0.139928  0.031267  0.054495      2.000000
 -0.104946  0.031267  0.054495      2.000000
 -0.069964  0.031267  0.054495      2.000000
 -0.034982  0.031267  0.054495      2.000000
  0.000000  0.062533  0.054495      2.000000
  0.034982  0.062533  0.054495      2.000000
  0.069964  0.062533  0.054495      2.000000
  0.104946  0.062533  0.054495      2.000000
  0.139928  0.062533  0.054495      2.000000
  0.174910  0.062533  0.054495      2.000000
 -0.139928  0.062533  0.054495      2.000000
 -0.104946  0.062533  0.054495      2.000000
 -0.069964  0.062533  0.054495      2.000000
 -0.034982  0.062533  0.054495      2.000000
 -0.000000  0.093800  0.054495      2.000000
  0.034982  0.093800  0.054495      2.000000
  0.069964  0.093800  0.054495      2.000000
  0.104946  0.093800  0.054495      2.000000
  0.139928  0.093800  0.054495      2.000000
  0.174910  0.093800  0.054495      2.000000
 -0.139928  0.093800  0.054495      2.000000
 -0.104946  0.093800  0.054495      2.000000
 -0.069964  0.093800  0.054495      2.000000
 -0.034982  0.093800  0.054495      2.000000
 


--------------------------------------------------------------------------------------------------------




 Dimension of arrays:
   k-points           NKPTS =    142   k-points in BZ     NKDIM =    142   number of bands    NBANDS=     72
   number of dos      NEDOS =    301   number of ions     NIONS =     12
   non local maximal  LDIM  =      6   non local SUM 2l+1 LMDIM =     18
   total plane-waves  NPLWV =  60480
   max r-space proj   IRMAX =      1   max aug-charges    IRDMAX=  15511
   dimension x,y,z NGX =    24 NGY =   36 NGZ =   70
   dimension x,y,z NGXF=    48 NGYF=   72 NGZF=  140
   support grid    NGXF=    48 NGYF=   72 NGZF=  140
   ions per type =               4   8
   NGX,Y,Z   is equivalent  to a cutoff of  13.96, 13.10, 12.68 a.u.
   NGXF,Y,Z  is equivalent  to a cutoff of  27.91, 26.20, 25.37 a.u.

 SYSTEM =  unknown system                          
 POSCAR =  Mn4 O8                                  

 Startparameter for this run:
   NWRITE =      2    write-flag & timer
   PREC   = accura    normal or accurate (medium, high low for compatibility)
   ISTART =      1    job   : 0-new  1-cont  2-samecut
   ICHARG =      0    charge: 1-file 2-atom 10-const
   ISPIN  =      2    spin polarized calculation?
   LNONCOLLINEAR =      F non collinear calculations
   LSORBIT =      F    spin-orbit coupling
   INIWAV =      1    electr: 0-lowe 1-rand  2-diag
   LASPH  =      T    aspherical Exc in radial PAW
   METAGGA=      F    non-selfconsistent MetaGGA calc.

 Electronic Relaxation 1
   ENCUT  =  520.0 eV  38.22 Ry    6.18 a.u.   5.32  8.50 17.06*2*pi/ulx,y,z
   ENINI  =  520.0     initial cutoff
   ENAUG  = 1040.0 eV  augmentation charge cutoff
   NELM   =    200;   NELMIN=  2; NELMDL=  0     # of ELM steps 
   EDIFF  = 0.1E-05   stopping-criterion for ELM
   LREAL  =      F    real-space projection
   NLSPLINE    = F    spline interpolate recip. space projectors
   LCOMPAT=      F    compatible to vasp.4.4
   GGA_COMPAT  = T    GGA compatible to vasp.4.4-vasp.4.6
   LMAXPAW     = -100 max onsite density
   LMAXMIX     =    4 max onsite mixed and CHGCAR
   VOSKOWN=      0    Vosko Wilk Nusair interpolation
   ROPT   =    0.00000   0.00000
 Ionic relaxation
   EDIFFG = -.3E-01   stopping-criterion for IOM
   NSW    =      0    number of steps for IOM
   NBLOCK =      1;   KBLOCK =      1    inner block; outer block 
   IBRION =     -1    ionic relax: 0-MD 1-quasi-New 2-CG
   NFREE  =      1    steps in history (QN), initial steepest desc. (CG)
   ISIF   =      3    stress and relaxation
   IWAVPR =     10    prediction:  0-non 1-charg 2-wave 3-comb
   ISYM   =      0    0-nonsym 1-usesym 2-fastsym
   LCORR  =      T    Harris-Foulkes like correction to forces

   POTIM  = 0.5000    time-step for ionic-motion
   TEIN   =    0.0    initial temperature
   TEBEG  =    0.0;   TEEND  =   0.0 temperature during run
   SMASS  =  -3.00    Nose mass-parameter (am)
   estimated Nose-frequenzy (Omega)   =  0.10E-29 period in steps =****** mass=  -0.187E-27a.u.
   SCALEE = 1.0000    scale energy and forces
   NPACO  =    256;   APACO  = 16.0  distance and # of slots for P.C.
   PSTRESS=    0.0 pullay stress

  Mass of Ions in am
   POMASS =  54.94 16.00
  Ionic Valenz
   ZVAL   =  13.00  6.00
  Atomic Wigner-Seitz radii
   RWIGS  =  -1.00 -1.00
  virtual crystal weights 
   VCA    =   1.00  1.00
   NELECT =     100.0000    total number of electrons
   NUPDOWN=      -1.0000    fix difference up-down

 DOS related values:
   EMIN   =  10.00;   EMAX   =-10.00  energy-range for DOS
   EFERMI =   0.00
   ISMEAR =     0;   SIGMA  =   0.01  broadening in eV -4-tet -1-fermi 0-gaus

 Electronic relaxation 2 (details)
   IALGO  =     58    algorithm
   LDIAG  =      T    sub-space diagonalisation (order eigenvalues)
   LSUBROT=      F    optimize rotation matrix (better conditioning)
   TURBO    =      0    0=normal 1=particle mesh
   IRESTART =      0    0=no restart 2=restart with 2 vectors
   NREBOOT  =      0    no. of reboots
   NMIN     =      0    reboot dimension
   EREF     =   0.00    reference energy to select bands
   IMIX   =      4    mixing-type and parameters
     AMIX     =   0.40;   BMIX     =  1.00
     AMIX_MAG =   1.60;   BMIX_MAG =  1.00
     AMIN     =   0.10
     WC   =   100.;   INIMIX=   1;  MIXPRE=   1;  MAXMIX= -45

 Intra band minimization:
   WEIMIN = 0.0000     energy-eigenvalue tresh-hold
   EBREAK =  0.35E-08  absolut break condition
   DEPER  =   0.30     relativ break condition  

   TIME   =   0.40     timestep for ELM

  volume/ion in A,a.u.               =       9.99        67.39
  Fermi-wavevector in a.u.,A,eV,Ry     =   1.541269  2.912576 32.320768  2.375509
  Thomas-Fermi vector in A             =   2.647239
 
 Write flags
   LWAVE        =      T    write WAVECAR
   LDOWNSAMPLE  =      F    k-point downsampling of WAVECAR
   LCHARG       =      T    write CHGCAR
   LVTOT        =      F    write LOCPOT, total local potential
   LVHAR        =      T    write LOCPOT, Hartree potential only
   LELF         =      T    write electronic localiz. function (ELF)
   LORBIT       =      0    0 simple, 1 ext, 2 COOP (PROOUT), +10 PAW based schemes


 Dipole corrections
   LMONO  =      F    monopole corrections only (constant potential shift)
   LDIPOL =      F    correct potential (dipole corrections)
   IDIPOL =      0    1-x, 2-y, 3-z, 4-all directions 
   EPSILON=  1.0000000 bulk dielectric constant

 Exchange correlation treatment:
   GGA     =    PE    GGA type
   LEXCH   =     8    internal setting for exchange type
   VOSKOWN=      0    Vosko Wilk Nusair interpolation
   LHFCALC =     F    Hartree Fock is set to
   LHFONE  =     F    Hartree Fock one center treatment
   AEXX    =    0.0000 exact exchange contribution

 Linear response parameters
   LEPSILON=     F    determine dielectric tensor
   LRPA    =     F    only Hartree local field effects (RPA)
   LNABLA  =     F    use nabla operator in PAW spheres
   LVEL    =     F    velocity operator in full k-point grid
   LINTERFAST=   F  fast interpolation
   KINTER  =     0    interpolate to denser k-point grid
   CSHIFT  =0.1000    complex shift for real part using Kramers Kronig
   OMEGAMAX=  -1.0    maximum frequency
   DEG_THRESHOLD= 0.2000000E-02 threshold for treating states as degnerate
   RTIME   =   -0.100 relaxation time in fs
  (WPLASMAI=    0.000 imaginary part of plasma frequency in eV, 0.658/RTIME)
   DFIELD  = 0.0000000 0.0000000 0.0000000 field for delta impulse in time
 
 Orbital magnetization related:
   ORBITALMAG=     F  switch on orbital magnetization
   LCHIMAG   =     F  perturbation theory with respect to B field
   DQ        =  0.001000  dq finite difference perturbation B field
   LLRAUG    =     F  two centre corrections for induced B field



--------------------------------------------------------------------------------------------------------


 Static calculation
 charge density and potential will be updated during run
 spin polarized calculation
 Conjugate gradient for all bands (Freysoldt, et al. PRB 79, 241103 (2009))
 preconditioned conjugated gradient                                        
 perform sub-space diagonalisation
    before iterative eigenvector-optimisation
 modified Broyden-mixing scheme, WC =      100.0
 initial mixing is a Kerker type mixing with AMIX =  0.4000 and BMIX =      1.0000
 Hartree-type preconditioning will be used
 using additional bands           22
 reciprocal scheme for non local part
 use partial core corrections
 no Harris-corrections to forces 
 use gradient corrections 
 use of overlap-Matrix (Vanderbilt PP)
 Gauss-broadening in eV      SIGMA  =   0.01


--------------------------------------------------------------------------------------------------------


  energy-cutoff  :      520.00
  volume of cell :      119.84
      direct lattice vectors                 reciprocal lattice vectors
     2.858610281  0.000000436 -0.000000733     0.349820333  0.000000051  0.000000025
    -0.000000665  4.568992368  0.000000412    -0.000000033  0.218866638  0.000000108
    -0.000000667 -0.000004528  9.175166632     0.000000028 -0.000000010  0.108989846

  length of vectors
     2.858610281  4.568992368  9.175166632     0.349820333  0.218866638  0.108989846


 
 old parameters found on file WAVECAR:
  energy-cutoff  :      520.00
  volume of cell :      123.90
      direct lattice vectors                 reciprocal lattice vectors
     2.875311631 -0.000003344 -0.000000481     0.347788389  0.000000501 -0.000000005
    -0.000006696  4.651681998  0.000012394     0.000000250  0.214976002 -0.000000447
     0.000000125  0.000019281  9.263551871     0.000000018 -0.000000288  0.107949954

  length of vectors

 
 k-points in units of 2pi/SCALE and weight: read from INCAR                         
   0.00000000  0.00000000  0.00000000       0.004
   0.03498203  0.00000001  0.00000000       0.007
   0.06996407  0.00000001  0.00000001       0.007
   0.10494610  0.00000002  0.00000001       0.007
   0.13992813  0.00000002  0.00000001       0.007
   0.17491017  0.00000003  0.00000001       0.004
  -0.00000000  0.03126666  0.00000002       0.007
   0.03498203  0.03126667  0.00000002       0.007
   0.06996406  0.03126667  0.00000002       0.007
   0.10494610  0.03126668  0.00000002       0.007
   0.13992813  0.03126668  0.00000003       0.007
   0.17491016  0.03126669  0.00000003       0.007
  -0.13992814  0.03126664  0.00000001       0.007
  -0.10494610  0.03126665  0.00000001       0.007
  -0.06996407  0.03126665  0.00000001       0.007
  -0.03498204  0.03126666  0.00000001       0.007
  -0.00000001  0.06253333  0.00000003       0.007
   0.03498202  0.06253333  0.00000003       0.007
   0.06996406  0.06253334  0.00000004       0.007
   0.10494609  0.06253334  0.00000004       0.007
   0.13992812  0.06253335  0.00000004       0.007
   0.17491016  0.06253335  0.00000004       0.007
  -0.13992814  0.06253330  0.00000002       0.007
  -0.10494611  0.06253331  0.00000002       0.007
  -0.06996408  0.06253332  0.00000003       0.007
  -0.03498204  0.06253332  0.00000003       0.007
  -0.00000001  0.09379999  0.00000005       0.007
   0.03498202  0.09379999  0.00000005       0.007
   0.06996405  0.09380000  0.00000005       0.007
   0.10494609  0.09380000  0.00000005       0.007
   0.13992812  0.09380001  0.00000006       0.007
   0.17491015  0.09380001  0.00000006       0.007
  -0.13992815  0.09379997  0.00000004       0.007
  -0.10494611  0.09379997  0.00000004       0.007
  -0.06996408  0.09379998  0.00000004       0.007
  -0.03498205  0.09379998  0.00000004       0.007
   0.00000001 -0.00000000  0.02724746       0.007
   0.03498204  0.00000000  0.02724746       0.007
   0.06996407  0.00000001  0.02724747       0.007
   0.10494611  0.00000001  0.02724747       0.007
   0.13992814  0.00000002  0.02724747       0.007
   0.17491017  0.00000002  0.02724747       0.007
  -0.13992813 -0.00000002  0.02724745       0.007
  -0.10494609 -0.00000002  0.02724745       0.007
  -0.06996406 -0.00000001  0.02724746       0.007
  -0.03498203 -0.00000001  0.02724746       0.007
   0.00000000  0.03126666  0.02724748       0.007
   0.03498204  0.03126667  0.02724748       0.007
   0.06996407  0.03126667  0.02724748       0.007
   0.10494610  0.03126668  0.02724748       0.007
   0.13992814  0.03126668  0.02724749       0.007
   0.17491017  0.03126669  0.02724749       0.007
  -0.13992813  0.03126664  0.02724747       0.007
  -0.10494610  0.03126664  0.02724747       0.007
  -0.06996406  0.03126665  0.02724747       0.007
  -0.03498203  0.03126666  0.02724747       0.007
  -0.00000000  0.06253332  0.02724749       0.007
   0.03498203  0.06253333  0.02724749       0.007
   0.06996406  0.06253333  0.02724750       0.007
   0.10494610  0.06253334  0.02724750       0.007
   0.13992813  0.06253334  0.02724750       0.007
   0.17491016  0.06253335  0.02724751       0.007
  -0.13992814  0.06253330  0.02724748       0.007
  -0.10494610  0.06253331  0.02724748       0.007
  -0.06996407  0.06253331  0.02724749       0.007
  -0.03498204  0.06253332  0.02724749       0.007
  -0.00000001  0.09379999  0.02724751       0.007
   0.03498203  0.09379999  0.02724751       0.007
   0.06996406  0.09380000  0.02724751       0.007
   0.10494609  0.09380000  0.02724752       0.007
   0.13992813  0.09380001  0.02724752       0.007
   0.17491016  0.09380001  0.02724752       0.007
  -0.13992814  0.09379997  0.02724750       0.007
  -0.10494611  0.09379997  0.02724750       0.007
  -0.06996407  0.09379998  0.02724750       0.007
  -0.03498204  0.09379998  0.02724751       0.007
   0.00000002 -0.09379999  0.02724742       0.007
   0.03498205 -0.09379999  0.02724742       0.007
   0.06996409 -0.09379998  0.02724742       0.007
   0.10494612 -0.09379998  0.02724742       0.007
   0.13992815 -0.09379997  0.02724743       0.007
   0.17491019 -0.09379996  0.02724743       0.007
  -0.13992811 -0.09380001  0.02724741       0.007
  -0.10494608 -0.09380001  0.02724741       0.007
  -0.06996405 -0.09380000  0.02724741       0.007
  -0.03498201 -0.09380000  0.02724741       0.007
   0.00000002 -0.06253333  0.02724743       0.007
   0.03498205 -0.06253332  0.02724743       0.007
   0.06996408 -0.06253332  0.02724744       0.007
   0.10494612 -0.06253331  0.02724744       0.007
   0.13992815 -0.06253331  0.02724744       0.007
   0.17491018 -0.06253330  0.02724744       0.007
  -0.13992812 -0.06253335  0.02724742       0.007
  -0.10494608 -0.06253334  0.02724742       0.007
  -0.06996405 -0.06253334  0.02724743       0.007
  -0.03498202 -0.06253333  0.02724743       0.007
   0.00000001 -0.03126667  0.02724745       0.007
   0.03498205 -0.03126666  0.02724745       0.007
   0.06996408 -0.03126665  0.02724745       0.007
   0.10494611 -0.03126665  0.02724745       0.007
   0.13992814 -0.03126664  0.02724746       0.007
   0.17491018 -0.03126664  0.02724746       0.007
  -0.13992812 -0.03126669  0.02724744       0.007
  -0.10494609 -0.03126668  0.02724744       0.007
  -0.06996405 -0.03126668  0.02724744       0.007
  -0.03498202 -0.03126667  0.02724744       0.007
   0.00000001 -0.00000000  0.05449492       0.004
   0.03498205  0.00000000  0.05449493       0.007
   0.06996408  0.00000001  0.05449493       0.007
   0.10494611  0.00000001  0.05449493       0.007
   0.13992815  0.00000002  0.05449493       0.007
   0.17491018  0.00000002  0.05449494       0.004
   0.00000001  0.03126666  0.05449494       0.007
   0.03498204  0.03126666  0.05449494       0.007
   0.06996408  0.03126667  0.05449494       0.007
   0.10494611  0.03126667  0.05449495       0.007
   0.13992814  0.03126668  0.05449495       0.007
   0.17491018  0.03126668  0.05449495       0.007
  -0.13992812  0.03126664  0.05449493       0.007
  -0.10494609  0.03126664  0.05449493       0.007
  -0.06996406  0.03126665  0.05449493       0.007
  -0.03498202  0.03126665  0.05449494       0.007
   0.00000000  0.06253332  0.05449495       0.007
   0.03498204  0.06253333  0.05449496       0.007
   0.06996407  0.06253333  0.05449496       0.007
   0.10494610  0.06253334  0.05449496       0.007
   0.13992814  0.06253334  0.05449496       0.007
   0.17491017  0.06253335  0.05449497       0.007
  -0.13992813  0.06253330  0.05449494       0.007
  -0.10494610  0.06253331  0.05449495       0.007
  -0.06996406  0.06253331  0.05449495       0.007
  -0.03498203  0.06253332  0.05449495       0.007
  -0.00000000  0.09379998  0.05449497       0.007
   0.03498203  0.09379999  0.05449497       0.007
   0.06996407  0.09379999  0.05449497       0.007
   0.10494610  0.09380000  0.05449498       0.007
   0.13992813  0.09380000  0.05449498       0.007
   0.17491017  0.09380001  0.05449498       0.007
  -0.13992813  0.09379996  0.05449496       0.007
  -0.10494610  0.09379997  0.05449496       0.007
  -0.06996407  0.09379997  0.05449496       0.007
  -0.03498203  0.09379998  0.05449497       0.007
 
 k-points in reciprocal lattice and weights: read from INCAR                         
   0.00000000  0.00000000  0.00000000       0.004
   0.10000000  0.00000000  0.00000000       0.007
   0.20000000 -0.00000000 -0.00000000       0.007
   0.30000000  0.00000000 -0.00000000       0.007
   0.40000000 -0.00000000 -0.00000000       0.007
   0.50000000 -0.00000000 -0.00000000       0.004
   0.00000000  0.14285714 -0.00000000       0.007
   0.10000000  0.14285714 -0.00000000       0.007
   0.20000000  0.14285714 -0.00000000       0.007
   0.30000000  0.14285714 -0.00000000       0.007
   0.40000000  0.14285714 -0.00000000       0.007
   0.50000000  0.14285714 -0.00000000       0.007
  -0.40000000  0.14285714 -0.00000000       0.007
  -0.30000000  0.14285714 -0.00000000       0.007
  -0.20000000  0.14285714 -0.00000000       0.007
  -0.10000000  0.14285714 -0.00000000       0.007
  -0.00000000  0.28571429 -0.00000000       0.007
   0.10000000  0.28571429 -0.00000000       0.007
   0.20000000  0.28571429 -0.00000000       0.007
   0.30000000  0.28571429 -0.00000000       0.007
   0.40000000  0.28571429 -0.00000000       0.007
   0.50000000  0.28571429 -0.00000000       0.007
  -0.40000000  0.28571429 -0.00000000       0.007
  -0.30000000  0.28571429 -0.00000000       0.007
  -0.20000000  0.28571429 -0.00000000       0.007
  -0.10000000  0.28571429 -0.00000000       0.007
   0.00000000  0.42857143 -0.00000000       0.007
   0.10000000  0.42857143 -0.00000000       0.007
   0.20000000  0.42857143 -0.00000000       0.007
   0.30000000  0.42857143 -0.00000000       0.007
   0.40000000  0.42857143 -0.00000000       0.007
   0.50000000  0.42857143 -0.00000000       0.007
  -0.40000000  0.42857143 -0.00000000       0.007
  -0.30000000  0.42857143 -0.00000000       0.007
  -0.20000000  0.42857143 -0.00000000       0.007
  -0.10000000  0.42857143 -0.00000000       0.007
   0.00000000  0.00000000  0.25000000       0.007
   0.10000000  0.00000000  0.25000000       0.007
   0.20000000 -0.00000000  0.25000000       0.007
   0.30000000 -0.00000000  0.25000000       0.007
   0.40000000 -0.00000000  0.25000000       0.007
   0.50000000  0.00000000  0.25000000       0.007
  -0.40000000  0.00000000  0.25000000       0.007
  -0.30000000 -0.00000000  0.25000000       0.007
  -0.20000000 -0.00000000  0.25000000       0.007
  -0.10000000  0.00000000  0.25000000       0.007
  -0.00000000  0.14285714  0.25000000       0.007
   0.10000000  0.14285714  0.25000000       0.007
   0.20000000  0.14285714  0.25000000       0.007
   0.30000000  0.14285714  0.25000000       0.007
   0.40000000  0.14285714  0.25000000       0.007
   0.50000000  0.14285714  0.25000000       0.007
  -0.40000000  0.14285714  0.25000000       0.007
  -0.30000000  0.14285714  0.25000000       0.007
  -0.20000000  0.14285714  0.25000000       0.007
  -0.10000000  0.14285714  0.25000000       0.007
   0.00000000  0.28571429  0.25000000       0.007
   0.10000000  0.28571429  0.25000000       0.007
   0.20000000  0.28571429  0.25000000       0.007
   0.30000000  0.28571429  0.25000000       0.007
   0.40000000  0.28571429  0.25000000       0.007
   0.50000000  0.28571429  0.25000000       0.007
  -0.40000000  0.28571429  0.25000000       0.007
  -0.30000000  0.28571429  0.25000000       0.007
  -0.20000000  0.28571429  0.25000000       0.007
  -0.10000000  0.28571429  0.25000000       0.007
   0.00000000  0.42857143  0.25000000       0.007
   0.10000000  0.42857143  0.25000000       0.007
   0.20000000  0.42857143  0.25000000       0.007
   0.30000000  0.42857143  0.25000000       0.007
   0.40000000  0.42857143  0.25000000       0.007
   0.50000000  0.42857143  0.25000000       0.007
  -0.40000000  0.42857143  0.25000000       0.007
  -0.30000000  0.42857143  0.25000000       0.007
  -0.20000000  0.42857143  0.25000000       0.007
  -0.10000000  0.42857143  0.25000000       0.007
  -0.00000000 -0.42857143  0.25000000       0.007
   0.10000000 -0.42857143  0.25000000       0.007
   0.20000000 -0.42857143  0.25000000       0.007
   0.30000000 -0.42857143  0.25000000       0.007
   0.40000000 -0.42857143  0.25000000       0.007
   0.50000000 -0.42857143  0.25000000       0.007
  -0.40000000 -0.42857143  0.25000000       0.007
  -0.30000000 -0.42857143  0.25000000       0.007
  -0.20000000 -0.42857143  0.25000000       0.007
  -0.10000000 -0.42857143  0.25000000       0.007
  -0.00000000 -0.28571429  0.25000000       0.007
   0.10000000 -0.28571429  0.25000000       0.007
   0.20000000 -0.28571429  0.25000000       0.007
   0.30000000 -0.28571429  0.25000000       0.007
   0.40000000 -0.28571429  0.25000000       0.007
   0.50000000 -0.28571429  0.25000000       0.007
  -0.40000000 -0.28571429  0.25000000       0.007
  -0.30000000 -0.28571429  0.25000000       0.007
  -0.20000000 -0.28571429  0.25000000       0.007
  -0.10000000 -0.28571429  0.25000000       0.007
  -0.00000000 -0.14285714  0.25000000       0.007
   0.10000000 -0.14285714  0.25000000       0.007
   0.20000000 -0.14285714  0.25000000       0.007
   0.30000000 -0.14285714  0.25000000       0.007
   0.40000000 -0.14285714  0.25000000       0.007
   0.50000000 -0.14285714  0.25000000       0.007
  -0.40000000 -0.14285714  0.25000000       0.007
  -0.30000000 -0.14285714  0.25000000       0.007
  -0.20000000 -0.14285714  0.25000000       0.007
  -0.10000000 -0.14285714  0.25000000       0.007
   0.00000000  0.00000000  0.50000000       0.004
   0.10000000  0.00000000  0.50000000       0.007
   0.20000000  0.00000000  0.50000000       0.007
   0.30000000  0.00000000  0.50000000       0.007
   0.40000000 -0.00000000  0.50000000       0.007
   0.50000000 -0.00000000  0.50000000       0.004
  -0.00000000  0.14285714  0.50000000       0.007
   0.10000000  0.14285714  0.50000000       0.007
   0.20000000  0.14285714  0.50000000       0.007
   0.30000000  0.14285714  0.50000000       0.007
   0.40000000  0.14285714  0.50000000       0.007
   0.50000000  0.14285714  0.50000000       0.007
  -0.40000000  0.14285714  0.50000000       0.007
  -0.30000000  0.14285714  0.50000000       0.007
  -0.20000000  0.14285714  0.50000000       0.007
  -0.10000000  0.14285714  0.50000000       0.007
  -0.00000000  0.28571429  0.50000000       0.007
   0.10000000  0.28571429  0.50000000       0.007
   0.20000000  0.28571429  0.50000000       0.007
   0.30000000  0.28571429  0.50000000       0.007
   0.40000000  0.28571429  0.50000000       0.007
   0.50000000  0.28571429  0.50000000       0.007
  -0.40000000  0.28571429  0.50000000       0.007
  -0.30000000  0.28571429  0.50000000       0.007
  -0.20000000  0.28571429  0.50000000       0.007
  -0.10000000  0.28571429  0.50000000       0.007
   0.00000000  0.42857143  0.50000000       0.007
   0.10000000  0.42857143  0.50000000       0.007
   0.20000000  0.42857143  0.50000000       0.007
   0.30000000  0.42857143  0.50000000       0.007
   0.40000000  0.42857143  0.50000000       0.007
   0.50000000  0.42857143  0.50000000       0.007
  -0.40000000  0.42857143  0.50000000       0.007
  -0.30000000  0.42857143  0.50000000       0.007
  -0.20000000  0.42857143  0.50000000       0.007
  -0.10000000  0.42857143  0.50000000       0.007
 
 position of ions in fractional coordinates (direct lattice) 
   0.25000216  0.03706890  0.86559611
   0.75000165  0.96293100  0.13440384
   0.75000173  0.53706856  0.63440363
   0.25000265  0.46293133  0.36559631
   0.24999993  0.71585118  0.53024146
   0.74999881  0.21585044  0.96975878
   0.24999890  0.78415010  0.03024147
   0.74999996  0.28415009  0.46975854
   0.24999926  0.15701588  0.22600744
   0.24999818  0.34298455  0.72600676
   0.74999819  0.65701603  0.27399346
   0.74999860  0.84298295  0.77399320
 
 position of ions in cartesian coordinates  (Angst):
   0.71465813  0.16936371  7.94198842
   2.14396170  4.39962410  1.23317751
   2.14396188  2.45385962  5.82075868
   0.71465959  2.11512816  3.35440708
   0.71465153  3.27071630  4.86505382
   2.14395351  0.98621494  8.89769792
   0.71464888  3.58277578  0.27747071
   2.14395709  1.29827778  4.31011245
   0.71465019  0.71740344  2.07365578
   0.71464664  1.56709062  6.66123295
   2.14395191  3.00190031  2.51393535
   2.14395264  3.85157947  7.10151637
 


--------------------------------------------------------------------------------------------------------


 k-point  1 :   0.0000 0.0000 0.0000  plane waves:    3225
 k-point  2 :   0.1000 0.0000 0.0000  plane waves:    3225
 k-point  3 :   0.2000-0.0000-0.0000  plane waves:    3229
 k-point  4 :   0.3000 0.0000-0.0000  plane waves:    3223
 k-point  5 :   0.4000-0.0000-0.0000  plane waves:    3226
 k-point  6 :   0.5000-0.0000-0.0000  plane waves:    3246
 k-point  7 :   0.0000 0.1429-0.0000  plane waves:    3211
 k-point  8 :   0.1000 0.1429-0.0000  plane waves:    3234
 k-point  9 :   0.2000 0.1429-0.0000  plane waves:    3229
 k-point 10 :   0.3000 0.1429-0.0000  plane waves:    3223
 k-point 11 :   0.4000 0.1429-0.0000  plane waves:    3225
 k-point 12 :   0.5000 0.1429-0.0000  plane waves:    3222
 k-point 13 :  -0.4000 0.1429-0.0000  plane waves:    3225
 k-point 14 :  -0.3000 0.1429-0.0000  plane waves:    3223
 k-point 15 :  -0.2000 0.1429-0.0000  plane waves:    3229
 k-point 16 :  -0.1000 0.1429-0.0000  plane waves:    3234
 k-point 17 :  -0.0000 0.2857-0.0000  plane waves:    3243
 k-point 18 :   0.1000 0.2857-0.0000  plane waves:    3232
 k-point 19 :   0.2000 0.2857-0.0000  plane waves:    3225
 k-point 20 :   0.3000 0.2857-0.0000  plane waves:    3220
 k-point 21 :   0.4000 0.2857-0.0000  plane waves:    3229
 k-point 22 :   0.5000 0.2857-0.0000  plane waves:    3224
 k-point 23 :  -0.4000 0.2857-0.0000  plane waves:    3229
 k-point 24 :  -0.3000 0.2857-0.0000  plane waves:    3220
 k-point 25 :  -0.2000 0.2857-0.0000  plane waves:    3225
 k-point 26 :  -0.1000 0.2857-0.0000  plane waves:    3232
 k-point 27 :   0.0000 0.4286-0.0000  plane waves:    3247
 k-point 28 :   0.1000 0.4286-0.0000  plane waves:    3227
 k-point 29 :   0.2000 0.4286-0.0000  plane waves:    3237
 k-point 30 :   0.3000 0.4286-0.0000  plane waves:    3211
 k-point 31 :   0.4000 0.4286-0.0000  plane waves:    3209
 k-point 32 :   0.5000 0.4286-0.0000  plane waves:    3206
 k-point 33 :  -0.4000 0.4286-0.0000  plane waves:    3209
 k-point 34 :  -0.3000 0.4286-0.0000  plane waves:    3211
 k-point 35 :  -0.2000 0.4286-0.0000  plane waves:    3237
 k-point 36 :  -0.1000 0.4286-0.0000  plane waves:    3227
 k-point 37 :   0.0000 0.0000 0.2500  plane waves:    3220
 k-point 38 :   0.1000 0.0000 0.2500  plane waves:    3233
 k-point 39 :   0.2000-0.0000 0.2500  plane waves:    3229
 k-point 40 :   0.3000-0.0000 0.2500  plane waves:    3219
 k-point 41 :   0.4000-0.0000 0.2500  plane waves:    3239
 k-point 42 :   0.5000 0.0000 0.2500  plane waves:    3242
 k-point 43 :  -0.4000 0.0000 0.2500  plane waves:    3239
 k-point 44 :  -0.3000-0.0000 0.2500  plane waves:    3219
 k-point 45 :  -0.2000-0.0000 0.2500  plane waves:    3229
 k-point 46 :  -0.1000 0.0000 0.2500  plane waves:    3233
 k-point 47 :  -0.0000 0.1429 0.2500  plane waves:    3235
 k-point 48 :   0.1000 0.1429 0.2500  plane waves:    3239
 k-point 49 :   0.2000 0.1429 0.2500  plane waves:    3232
 k-point 50 :   0.3000 0.1429 0.2500  plane waves:    3228
 k-point 51 :   0.4000 0.1429 0.2500  plane waves:    3230
 k-point 52 :   0.5000 0.1429 0.2500  plane waves:    3240
 k-point 53 :  -0.4000 0.1429 0.2500  plane waves:    3230
 k-point 54 :  -0.3000 0.1429 0.2500  plane waves:    3228
 k-point 55 :  -0.2000 0.1429 0.2500  plane waves:    3232
 k-point 56 :  -0.1000 0.1429 0.2500  plane waves:    3239
 k-point 57 :   0.0000 0.2857 0.2500  plane waves:    3237
 k-point 58 :   0.1000 0.2857 0.2500  plane waves:    3239
 k-point 59 :   0.2000 0.2857 0.2500  plane waves:    3229
 k-point 60 :   0.3000 0.2857 0.2500  plane waves:    3213
 k-point 61 :   0.4000 0.2857 0.2500  plane waves:    3219
 k-point 62 :   0.5000 0.2857 0.2500  plane waves:    3228
 k-point 63 :  -0.4000 0.2857 0.2500  plane waves:    3219
 k-point 64 :  -0.3000 0.2857 0.2500  plane waves:    3213
 k-point 65 :  -0.2000 0.2857 0.2500  plane waves:    3229
 k-point 66 :  -0.1000 0.2857 0.2500  plane waves:    3239
 k-point 67 :   0.0000 0.4286 0.2500  plane waves:    3230
 k-point 68 :   0.1000 0.4286 0.2500  plane waves:    3231
 k-point 69 :   0.2000 0.4286 0.2500  plane waves:    3230
 k-point 70 :   0.3000 0.4286 0.2500  plane waves:    3219
 k-point 71 :   0.4000 0.4286 0.2500  plane waves:    3201
 k-point 72 :   0.5000 0.4286 0.2500  plane waves:    3198
 k-point 73 :  -0.4000 0.4286 0.2500  plane waves:    3201
 k-point 74 :  -0.3000 0.4286 0.2500  plane waves:    3219
 k-point 75 :  -0.2000 0.4286 0.2500  plane waves:    3230
 k-point 76 :  -0.1000 0.4286 0.2500  plane waves:    3231
 k-point 77 :  -0.0000-0.4286 0.2500  plane waves:    3230
 k-point 78 :   0.1000-0.4286 0.2500  plane waves:    3231
 k-point 79 :   0.2000-0.4286 0.2500  plane waves:    3230
 k-point 80 :   0.3000-0.4286 0.2500  plane waves:    3219
 k-point 81 :   0.4000-0.4286 0.2500  plane waves:    3201
 k-point 82 :   0.5000-0.4286 0.2500  plane waves:    3198
 k-point 83 :  -0.4000-0.4286 0.2500  plane waves:    3201
 k-point 84 :  -0.3000-0.4286 0.2500  plane waves:    3219
 k-point 85 :  -0.2000-0.4286 0.2500  plane waves:    3230
 k-point 86 :  -0.1000-0.4286 0.2500  plane waves:    3231
 k-point 87 :  -0.0000-0.2857 0.2500  plane waves:    3237
 k-point 88 :   0.1000-0.2857 0.2500  plane waves:    3239
 k-point 89 :   0.2000-0.2857 0.2500  plane waves:    3229
 k-point 90 :   0.3000-0.2857 0.2500  plane waves:    3213
 k-point 91 :   0.4000-0.2857 0.2500  plane waves:    3219
 k-point 92 :   0.5000-0.2857 0.2500  plane waves:    3228
 k-point 93 :  -0.4000-0.2857 0.2500  plane waves:    3219
 k-point 94 :  -0.3000-0.2857 0.2500  plane waves:    3213
 k-point 95 :  -0.2000-0.2857 0.2500  plane waves:    3229
 k-point 96 :  -0.1000-0.2857 0.2500  plane waves:    3239
 k-point 97 :  -0.0000-0.1429 0.2500  plane waves:    3235
 k-point 98 :   0.1000-0.1429 0.2500  plane waves:    3239
 k-point 99 :   0.2000-0.1429 0.2500  plane waves:    3232
 k-point ** :   0.3000-0.1429 0.2500  plane waves:    3228
 k-point ** :   0.4000-0.1429 0.2500  plane waves:    3230
 k-point ** :   0.5000-0.1429 0.2500  plane waves:    3240
 k-point ** :  -0.4000-0.1429 0.2500  plane waves:    3230
 k-point ** :  -0.3000-0.1429 0.2500  plane waves:    3228
 k-point ** :  -0.2000-0.1429 0.2500  plane waves:    3232
 k-point ** :  -0.1000-0.1429 0.2500  plane waves:    3239
 k-point ** :   0.0000 0.0000 0.5000  plane waves:    3230
 k-point ** :   0.1000 0.0000 0.5000  plane waves:    3244
 k-point ** :   0.2000 0.0000 0.5000  plane waves:    3230
 k-point ** :   0.3000 0.0000 0.5000  plane waves:    3226
 k-point ** :   0.4000-0.0000 0.5000  plane waves:    3246
 k-point ** :   0.5000-0.0000 0.5000  plane waves:    3248
 k-point ** :  -0.0000 0.1429 0.5000  plane waves:    3258
 k-point ** :   0.1000 0.1429 0.5000  plane waves:    3240
 k-point ** :   0.2000 0.1429 0.5000  plane waves:    3228
 k-point ** :   0.3000 0.1429 0.5000  plane waves:    3214
 k-point ** :   0.4000 0.1429 0.5000  plane waves:    3234
 k-point ** :   0.5000 0.1429 0.5000  plane waves:    3240
 k-point ** :  -0.4000 0.1429 0.5000  plane waves:    3234
 k-point ** :  -0.3000 0.1429 0.5000  plane waves:    3214
 k-point ** :  -0.2000 0.1429 0.5000  plane waves:    3228
 k-point ** :  -0.1000 0.1429 0.5000  plane waves:    3240
 k-point ** :  -0.0000 0.2857 0.5000  plane waves:    3238
 k-point ** :   0.1000 0.2857 0.5000  plane waves:    3246
 k-point ** :   0.2000 0.2857 0.5000  plane waves:    3220
 k-point ** :   0.3000 0.2857 0.5000  plane waves:    3216
 k-point ** :   0.4000 0.2857 0.5000  plane waves:    3216
 k-point ** :   0.5000 0.2857 0.5000  plane waves:    3224
 k-point ** :  -0.4000 0.2857 0.5000  plane waves:    3216
 k-point ** :  -0.3000 0.2857 0.5000  plane waves:    3216
 k-point ** :  -0.2000 0.2857 0.5000  plane waves:    3220
 k-point ** :  -0.1000 0.2857 0.5000  plane waves:    3246
 k-point ** :   0.0000 0.4286 0.5000  plane waves:    3244
 k-point ** :   0.1000 0.4286 0.5000  plane waves:    3230
 k-point ** :   0.2000 0.4286 0.5000  plane waves:    3236
 k-point ** :   0.3000 0.4286 0.5000  plane waves:    3210
 k-point ** :   0.4000 0.4286 0.5000  plane waves:    3210
 k-point ** :   0.5000 0.4286 0.5000  plane waves:    3212
 k-point ** :  -0.4000 0.4286 0.5000  plane waves:    3210
 k-point ** :  -0.3000 0.4286 0.5000  plane waves:    3210
 k-point ** :  -0.2000 0.4286 0.5000  plane waves:    3236
 k-point ** :  -0.1000 0.4286 0.5000  plane waves:    3230

 maximum and minimum number of plane-waves per node :       824      786

 maximum number of plane-waves:      3258
 maximum index in each direction: 
   IXMAX=    5   IYMAX=    8   IZMAX=   17
   IXMIN=   -5   IYMIN=   -8   IZMIN=  -17


 parallel 3D FFT for wavefunctions:
    minimum data exchange during FFTs selected (reduces bandwidth)
 parallel 3D FFT for charge:
    minimum data exchange during FFTs selected (reduces bandwidth)


 total amount of memory used by VASP MPI-rank0   281588. kBytes
=======================================================================

   base      :      30000. kBytes
   nonl-proj :      33856. kBytes
   fftplans  :       1491. kBytes
   grid      :       5125. kBytes
   one-center:         93. kBytes
   wavefun   :     211023. kBytes
 
     INWAV:  cpu time    3.9314: real time    3.9534
 Broyden mixing: mesh for mixing (old mesh)
   NGX = 11   NGY = 17   NGZ = 35
  (NGX  = 48   NGY  = 72   NGZ  =140)
  gives a total of   6545 points

 charge density for first step will be calculated from the start-wavefunctions


--------------------------------------------------------------------------------------------------------


 Maximum index for augmentation-charges          951 (set IRDMAX)


--------------------------------------------------------------------------------------------------------


 initial charge from wavefunction
 First call to EWALD:  gamma=   0.360
 Maximum number of real-space cells 4x 3x 2
 Maximum number of reciprocal cells 2x 3x 5

    FEWALD:  cpu time    0.0022: real time    0.0025


--------------------------------------- Iteration      1(   1)  ---------------------------------------


    POTLOK:  cpu time    0.0906: real time    0.0916
    SETDIJ:  cpu time    1.1149: real time    1.1179
    TRIAL :  cpu time   33.7362: real time   33.8717
    CORREC:  cpu time   18.8303: real time   18.8970
    CHARGE:  cpu time   10.8209: real time   10.8549
    --------------------------------------------
      LOOP:  cpu time   64.6538: real time   64.9003

 eigenvalue-minimisations  :     0
 total energy-change (2. order) :-0.1307032E+03  (-0.1546317E-04)
 number of electron      99.9999986 magnetization      11.9999992
 augmentation part       33.7119875 magnetization       8.5738718

 Free energy of the ion-electron system (eV)
  ---------------------------------------------------
  alpha Z        PSCENC =       464.22372821
  Ewald energy   TEWEN  =     -7592.91167461
  -Hartree energ DENC   =     -3525.94754105
  -exchange      EXHF   =         0.00000000
  -V(xc)+E(xc)   XCENC  =       593.05529297
  PAW double counting   =     13028.88974451   -13301.31636465
  entropy T*S    EENTRO =        -0.00000000
  eigenvalues    EBANDS =     -1356.60272723
  atomic energy  EATOM  =     11559.90638050
  ---------------------------------------------------
  free energy    TOTEN  =      -130.70316135 eV

  energy without entropy =     -130.70316135  energy(sigma->0) =     -130.70316135


--------------------------------------------------------------------------------------------------------




--------------------------------------- Iteration      1(   2)  ---------------------------------------


    POTLOK:  cpu time    0.1669: real time    0.1687
    SETDIJ:  cpu time    1.1024: real time    1.1049
    TRIAL :  cpu time   35.7964: real time   35.9367
    CORREC:  cpu time   25.9602: real time   26.0429
    CHARGE:  cpu time   10.6115: real time   10.6458
    --------------------------------------------
      LOOP:  cpu time   73.6387: real time   73.9004

 eigenvalue-minimisations  :     0
 total energy-change (2. order) :-0.7166258E-05  (-0.3055133E-05)
 number of electron      99.9999986 magnetization      11.9999992
 augmentation part       33.7118388 magnetization       8.5738524

 Free energy of the ion-electron system (eV)
  ---------------------------------------------------
  alpha Z        PSCENC =       464.22372821
  Ewald energy   TEWEN  =     -7592.91167461
  -Hartree energ DENC   =     -3525.93625310
  -exchange      EXHF   =         0.00000000
  -V(xc)+E(xc)   XCENC  =       593.05313382
  PAW double counting   =     13029.33845849   -13301.76676790
  entropy T*S    EENTRO =        -0.00000000
  eigenvalues    EBANDS =     -1356.61017394
  atomic energy  EATOM  =     11559.90638050
  ---------------------------------------------------
  free energy    TOTEN  =      -130.70316851 eV

  energy without entropy =     -130.70316851  energy(sigma->0) =     -130.70316851


--------------------------------------------------------------------------------------------------------




--------------------------------------- Iteration      1(   3)  ---------------------------------------


    POTLOK:  cpu time    0.1555: real time    0.1570
    SETDIJ:  cpu time    1.3103: real time    1.3134
    TRIAL :  cpu time   60.7121: real time   61.6450
    CORREC:  cpu time   18.7708: real time   20.0275
    CHARGE:  cpu time    7.0288: real time    7.0533
    --------------------------------------------
      LOOP:  cpu time   87.9787: real time   90.1976

 eigenvalue-minimisations  :     0
 total energy-change (2. order) :-0.2710687E-05  (-0.8733684E-06)
 number of electron      99.9999986 magnetization      11.9999992
 augmentation part       33.7118833 magnetization       8.5738666

 Free energy of the ion-electron system (eV)
  ---------------------------------------------------
  alpha Z        PSCENC =       464.22372821
  Ewald energy   TEWEN  =     -7592.91167461
  -Hartree energ DENC   =     -3525.93042329
  -exchange      EXHF   =         0.00000000
  -V(xc)+E(xc)   XCENC  =       593.05367700
  PAW double counting   =     13029.32080614   -13301.74562217
  entropy T*S    EENTRO =        -0.00000000
  eigenvalues    EBANDS =     -1356.62004301
  atomic energy  EATOM  =     11559.90638050
  ---------------------------------------------------
  free energy    TOTEN  =      -130.70317122 eV

  energy without entropy =     -130.70317122  energy(sigma->0) =     -130.70317122


--------------------------------------------------------------------------------------------------------




--------------------------------------- Iteration      1(   4)  ---------------------------------------


    POTLOK:  cpu time    0.0909: real time    0.0918
    SETDIJ:  cpu time    1.1066: real time    1.1093
    TRIAL :  cpu time   35.1200: real time   35.2582
    CORREC:  cpu time   18.2301: real time   18.6681
    EDDIAG:  cpu time    9.2751: real time    9.3090
    CHARGE:  cpu time    6.4664: real time    6.4859
    --------------------------------------------
      LOOP:  cpu time   70.2896: real time   70.9229

 eigenvalue-minimisations  :     0
 total energy-change (2. order) :-0.7122526E-06  (-0.2087912E-06)
 number of electron      99.9999986 magnetization      11.9999992
 augmentation part       33.7119071 magnetization       8.5738755

 Free energy of the ion-electron system (eV)
  ---------------------------------------------------
  alpha Z        PSCENC =       464.22372821
  Ewald energy   TEWEN  =     -7592.91167461
  -Hartree energ DENC   =     -3525.94190673
  -exchange      EXHF   =         0.00000000
  -V(xc)+E(xc)   XCENC  =       593.05437968
  PAW double counting   =     13029.32460904   -13301.75054665
  entropy T*S    EENTRO =        -0.00000000
  eigenvalues    EBANDS =     -1356.60814138
  atomic energy  EATOM  =     11559.90638050
  ---------------------------------------------------
  free energy    TOTEN  =      -130.70317194 eV

  energy without entropy =     -130.70317194  energy(sigma->0) =     -130.70317194


--------------------------------------------------------------------------------------------------------


  average scaling for gradient   0.9297


 average (electrostatic) potential at core
  the test charge radii are     0.9577  0.7215
  (the norm of the test charge is              1.0000)
       1 -77.0921       2 -77.0921       3 -77.0921       4 -77.0921       5 -74.7251
       6 -74.7251       7 -74.7251       8 -74.7251       9 -74.4980      10 -74.4980
      11 -74.4980      12 -74.4980
 
 
 
 E-fermi :   3.7588     XC(G=0): -12.2322     alpha+bet :-11.8768


 spin component 1

 k-point     1 :       0.0000    0.0000    0.0000
  band No.  band energies     occupation 
      1     -48.8652      1.00000
      2     -48.8536      1.00000
      3     -48.8368      1.00000
      4     -48.8331      1.00000
      5     -48.8201      1.00000
      6     -48.8164      1.00000
      7     -48.8005      1.00000
      8     -48.7967      1.00000
      9     -48.7849      1.00000
     10     -48.7769      1.00000
     11     -48.7751      1.00000
     12     -48.7710      1.00000
     13     -16.8112      1.00000
     14     -16.1554      1.00000
     15     -15.9260      1.00000
     16     -15.1140      1.00000
     17     -14.8285      1.00000
     18     -14.7741      1.00000
     19     -14.6745      1.00000
     20     -14.6220      1.00000
     21      -3.7447      1.00000
     22      -3.1476      1.00000
     23      -3.0211      1.00000
     24      -2.8486      1.00000
     25      -2.3738      1.00000
     26      -2.0552      1.00000
     27      -2.0115      1.00000
     28      -1.9070      1.00000
     29      -1.8726      1.00000
     30      -1.6842      1.00000
     31      -1.5130      1.00000
     32      -0.8318      1.00000
     33      -0.7475      1.00000
     34      -0.3198      1.00000
     35       0.3112      1.00000
     36       0.3174      1.00000
     37       0.3889      1.00000
     38       0.4165      1.00000
     39       0.5540      1.00000
     40       0.7491      1.00000
     41       0.8995      1.00000
     42       1.0146      1.00000
     43       1.0197      1.00000
     44       1.8428      1.00000
     45       1.9045      1.00000
     46       2.1967      1.00000
     47       2.3191      1.00000
     48       2.3429      1.00000
     49       2.3768      1.00000
     50       2.4883      1.00000
     51       2.4962      1.00000
     52       2.6392      1.00000
     53       3.0880      1.00000
     54       3.1596      1.00000
     55       3.2543      1.00000
     56       3.4176      1.00000
     57       5.1739      0.00000
     58       5.6136      0.00000
     59       6.7025      0.00000
     60       6.8128      0.00000
     61       6.8178      0.00000
     62       6.9448      0.00000
     63       6.9453      0.00000
     64       7.4319      0.00000
     65      11.9750      0.00000
     66      14.0265      0.00000
     67      14.6899      0.00000
     68      15.5729      0.00000
     69      15.9411      0.00000
     70      17.1663      0.00000
     71      17.3862      0.00000
     72      18.2879      0.00000

 k-point     2 :       0.1000    0.0000    0.0000
  band No.  band energies     occupation 
      1     -48.8630      1.00000
      2     -48.8545      1.00000
      3     -48.8472      1.00000
      4     -48.8446      1.00000
      5     -48.8272      1.00000
      6     -48.8262      1.00000
      7     -48.7985      1.00000
      8     -48.7950      1.00000
      9     -48.7836      1.00000
     10     -48.7762      1.00000
     11     -48.7756      1.00000
     12     -48.7704      1.00000
     13     -16.7143      1.00000
     14     -16.0827      1.00000
     15     -15.8541      1.00000
     16     -15.0805      1.00000
     17     -14.8398      1.00000
     18     -14.7856      1.00000
     19     -14.6994      1.00000
     20     -14.6445      1.00000
     21      -3.6022      1.00000
     22      -3.0261      1.00000
     23      -2.9112      1.00000
     24      -2.7404      1.00000
     25      -2.2934      1.00000
     26      -2.2599      1.00000
     27      -2.1635      1.00000
     28      -1.9801      1.00000
     29      -1.6339      1.00000
     30      -1.5854      1.00000
     31      -1.5454      1.00000
     32      -0.8254      1.00000
     33      -0.7578      1.00000
     34      -0.4589      1.00000
     35       0.0149      1.00000
     36       0.0886      1.00000
     37       0.4263      1.00000
     38       0.5533      1.00000
     39       0.6039      1.00000
     40       0.6302      1.00000
     41       0.7356      1.00000
     42       0.8593      1.00000
     43       0.9482      1.00000
     44       1.7579      1.00000
     45       1.7786      1.00000
     46       2.0966      1.00000
     47       2.2172      1.00000
     48       2.3982      1.00000
     49       2.4935      1.00000
     50       2.5430      1.00000
     51       2.6351      1.00000
     52       2.6581      1.00000
     53       3.1051      1.00000
     54       3.2094      1.00000
     55       3.3013      1.00000
     56       3.4306      1.00000
     57       5.2431      0.00000
     58       5.6573      0.00000
     59       6.4822      0.00000
     60       6.5519      0.00000
     61       6.6795      0.00000
     62       6.7240      0.00000
     63       6.8846      0.00000
     64       7.3745      0.00000
     65      12.3301      0.00000
     66      14.3251      0.00000
     67      14.9444      0.00000
     68      15.9855      0.00000
     69      16.3584      0.00000
     70      17.4694      0.00000
     71      17.7197      0.00000
     72      18.3782      0.00000

 k-point     3 :       0.2000   -0.0000   -0.0000
  band No.  band energies     occupation 
      1     -48.8738      1.00000
      2     -48.8730      1.00000
      3     -48.8706      1.00000
      4     -48.8665      1.00000
      5     -48.8420      1.00000
      6     -48.8316      1.00000
      7     -48.7935      1.00000
      8     -48.7923      1.00000
      9     -48.7801      1.00000
     10     -48.7776      1.00000
     11     -48.7749      1.00000
     12     -48.7690      1.00000
     13     -16.4420      1.00000
     14     -15.8854      1.00000
     15     -15.6600      1.00000
     16     -15.0049      1.00000
     17     -14.8682      1.00000
     18     -14.8156      1.00000
     19     -14.7689      1.00000
     20     -14.7056      1.00000
     21      -3.2082      1.00000
     22      -2.7018      1.00000
     23      -2.6198      1.00000
     24      -2.4950      1.00000
     25      -2.4315      1.00000
     26      -2.3747      1.00000
     27      -2.1048      1.00000
     28      -2.0947      1.00000
     29      -1.6797      1.00000
     30      -1.4011      1.00000
     31      -1.2761      1.00000
     32      -1.2446      1.00000
     33      -1.0456      1.00000
     34      -0.6083      1.00000
     35      -0.1757      1.00000
     36      -0.0993      1.00000
     37       0.0050      1.00000
     38       0.2453      1.00000
     39       0.4169      1.00000
     40       0.6668      1.00000
     41       0.7180      1.00000
     42       0.7892      1.00000
     43       0.8660      1.00000
     44       1.5021      1.00000
     45       1.8730      1.00000
     46       1.8945      1.00000
     47       2.1413      1.00000
     48       2.2516      1.00000
     49       2.4509      1.00000
     50       2.6475      1.00000
     51       2.6785      1.00000
     52       2.7582      1.00000
     53       3.0551      1.00000
     54       3.2807      1.00000
     55       3.4141      1.00000
     56       3.4161      1.00000
     57       5.3923      0.00000
     58       5.4887      0.00000
     59       5.9429      0.00000
     60       6.1674      0.00000
     61       6.3220      0.00000
     62       6.5344      0.00000
     63       6.9109      0.00000
     64       7.1453      0.00000
     65      13.2546      0.00000
     66      15.0366      0.00000
     67      15.5485      0.00000
     68      17.0098      0.00000
     69      17.3816      0.00000
     70      18.2518      0.00000
     71      18.5196      0.00000
     72      18.5512      0.00000

 k-point     4 :       0.3000    0.0000   -0.0000
  band No.  band energies     occupation 
      1     -48.9065      1.00000
      2     -48.9057      1.00000
      3     -48.9025      1.00000
      4     -48.8965      1.00000
      5     -48.8340      1.00000
      6     -48.8236      1.00000
      7     -48.7915      1.00000
      8     -48.7889      1.00000
      9     -48.7801      1.00000
     10     -48.7760      1.00000
     11     -48.7734      1.00000
     12     -48.7680      1.00000
     13     -16.0484      1.00000
     14     -15.6215      1.00000
     15     -15.4051      1.00000
     16     -14.9567      1.00000
     17     -14.8993      1.00000
     18     -14.8682      1.00000
     19     -14.8540      1.00000
     20     -14.7855      1.00000
     21      -2.7080      1.00000
     22      -2.5930      1.00000
     23      -2.5055      1.00000
     24      -2.4778      1.00000
     25      -2.3319      1.00000
     26      -2.2829      1.00000
     27      -2.2657      1.00000
     28      -2.0461      1.00000
     29      -1.6136      1.00000
     30      -1.6010      1.00000
     31      -1.3925      1.00000
     32      -0.9943      1.00000
     33      -0.9086      1.00000
     34      -0.7315      1.00000
     35      -0.5940      1.00000
     36      -0.1429      1.00000
     37      -0.0887      1.00000
     38       0.0051      1.00000
     39       0.2103      1.00000
     40       0.5841      1.00000
     41       0.5965      1.00000
     42       0.8537      1.00000
     43       0.9970      1.00000
     44       1.1591      1.00000
     45       1.6458      1.00000
     46       1.8752      1.00000
     47       1.9023      1.00000
     48       2.0432      1.00000
     49       2.2909      1.00000
     50       2.3585      1.00000
     51       2.5180      1.00000
     52       2.7061      1.00000
     53       3.1437      1.00000
     54       3.2220      1.00000
     55       3.3225      1.00000
     56       3.4908      1.00000
     57       5.1933      0.00000
     58       5.4622      0.00000
     59       5.5516      0.00000
     60       5.7845      0.00000
     61       6.2013      0.00000
     62       6.8075      0.00000
     63       6.8236      0.00000
     64       6.9865      0.00000
     65      14.4699      0.00000
     66      15.8542      0.00000
     67      16.2179      0.00000
     68      18.2326      0.00000
     69      18.5592      0.00000
     70      18.7099      0.00000
     71      18.9007      0.00000
     72      19.0652      0.00000

 k-point     5 :       0.4000   -0.0000   -0.0000
  band No.  band energies     occupation 
      1     -48.9326      1.00000
      2     -48.9304      1.00000
      3     -48.9301      1.00000
      4     -48.9252      1.00000
      5     -48.8198      1.00000
      6     -48.8126      1.00000
      7     -48.7949      1.00000
      8     -48.7943      1.00000
      9     -48.7763      1.00000
     10     -48.7725      1.00000
     11     -48.7717      1.00000
     12     -48.7684      1.00000
     13     -15.6189      1.00000
     14     -15.3678      1.00000
     15     -15.1840      1.00000
     16     -15.0256      1.00000
     17     -14.9723      1.00000
     18     -14.9146      1.00000
     19     -14.8972      1.00000
     20     -14.8534      1.00000
     21      -3.0142      1.00000
     22      -2.8732      1.00000
     23      -2.5267      1.00000
     24      -2.5086      1.00000
     25      -2.3942      1.00000
     26      -2.1408      1.00000
     27      -1.9684      1.00000
     28      -1.8592      1.00000
     29      -1.5002      1.00000
     30      -1.3005      1.00000
     31      -1.2161      1.00000
     32      -1.1074      1.00000
     33      -0.7552      1.00000
     34      -0.5261      1.00000
     35      -0.3912      1.00000
     36      -0.1222      1.00000
     37      -0.0521      1.00000
     38      -0.0114      1.00000
     39       0.2969      1.00000
     40       0.3157      1.00000
     41       0.5001      1.00000
     42       0.9027      1.00000
     43       0.9623      1.00000
     44       1.0725      1.00000
     45       1.3780      1.00000
     46       1.5779      1.00000
     47       1.6066      1.00000
     48       1.6599      1.00000
     49       1.8856      1.00000
     50       1.9904      1.00000
     51       2.2755      1.00000
     52       2.3363      1.00000
     53       3.2276      1.00000
     54       3.2658      1.00000
     55       3.2718      1.00000
     56       3.4833      1.00000
     57       5.1396      0.00000
     58       5.3628      0.00000
     59       5.4784      0.00000
     60       5.6067      0.00000
     61       6.3401      0.00000
     62       6.5922      0.00000
     63       7.0579      0.00000
     64       7.1069      0.00000
     65      15.7548      0.00000
     66      16.5557      0.00000
     67      16.7423      0.00000
     68      18.0779      0.00000
     69      18.5862      0.00000
     70      18.7048      0.00000
     71      18.9948      0.00000
     72      19.4647      0.00000

 k-point     6 :       0.5000   -0.0000   -0.0000
  band No.  band energies     occupation 
      1     -48.9416      1.00000
      2     -48.9416      1.00000
      3     -48.9380      1.00000
      4     -48.9380      1.00000
      5     -48.8057      1.00000
      6     -48.8057      1.00000
      7     -48.8023      1.00000
      8     -48.8023      1.00000
      9     -48.7713      1.00000
     10     -48.7713      1.00000
     11     -48.7710      1.00000
     12     -48.7710      1.00000
     13     -15.2529      1.00000
     14     -15.2529      1.00000
     15     -15.1832      1.00000
     16     -15.1832      1.00000
     17     -14.9624      1.00000
     18     -14.9624      1.00000
     19     -14.8994      1.00000
     20     -14.8994      1.00000
     21      -3.1467      1.00000
     22      -3.1467      1.00000
     23      -2.5045      1.00000
     24      -2.5045      1.00000
     25      -2.3125      1.00000
     26      -2.3125      1.00000
     27      -1.7777      1.00000
     28      -1.7777      1.00000
     29      -1.3194      1.00000
     30      -1.3194      1.00000
     31      -1.0023      1.00000
     32      -1.0023      1.00000
     33      -0.4128      1.00000
     34      -0.4128      1.00000
     35      -0.3789      1.00000
     36      -0.3789      1.00000
     37      -0.1278      1.00000
     38      -0.1278      1.00000
     39       0.3979      1.00000
     40       0.3980      1.00000
     41       0.8981      1.00000
     42       0.8981      1.00000
     43       1.0883      1.00000
     44       1.0883      1.00000
     45       1.3378      1.00000
     46       1.3378      1.00000
     47       1.4054      1.00000
     48       1.4054      1.00000
     49       1.4856      1.00000
     50       1.4856      1.00000
     51       2.1783      1.00000
     52       2.1783      1.00000
     53       3.2536      1.00000
     54       3.2536      1.00000
     55       3.4002      1.00000
     56       3.4002      1.00000
     57       5.2371      0.00000
     58       5.2371      0.00000
     59       5.5233      0.00000
     60       5.5233      0.00000
     61       6.4741      0.00000
     62       6.4741      0.00000
     63       7.1621      0.00000
     64       7.1621      0.00000
     65      16.9221      0.00000
     66      16.9221      0.00000
     67      16.9865      0.00000
     68      16.9865      0.00000
     69      18.2994      0.00000
     70      18.2994      0.00000
     71      19.4582      0.00000
[...]
  band No.  band energies     occupation 
      1     -44.8411      1.00000
      2     -44.8411      1.00000
      3     -44.8311      1.00000
      4     -44.8311      1.00000
      5     -44.7802      1.00000
      6     -44.7802      1.00000
      7     -44.7092      1.00000
      8     -44.7092      1.00000
      9     -44.6203      1.00000
     10     -44.6203      1.00000
     11     -44.6059      1.00000
     12     -44.6058      1.00000
     13     -16.0002      1.00000
     14     -16.0002      1.00000
     15     -15.1762      1.00000
     16     -15.1762      1.00000
     17     -14.8088      1.00000
     18     -14.8088      1.00000
     19     -14.7000      1.00000
     20     -14.7000      1.00000
     21      -2.2008      1.00000
     22      -2.2007      1.00000
     23      -1.8964      1.00000
     24      -1.8964      1.00000
     25      -1.6374      1.00000
     26      -1.6373      1.00000
     27      -1.4742      1.00000
     28      -1.4741      1.00000
     29      -0.2586      1.00000
     30      -0.2586      1.00000
     31      -0.1480      1.00000
     32      -0.1479      1.00000
     33       0.5898      1.00000
     34       0.5898      1.00000
     35       0.6612      1.00000
     36       0.6613      1.00000
     37       1.0134      1.00000
     38       1.0134      1.00000
     39       1.5553      1.00000
     40       1.5553      1.00000
     41       2.0300      1.00000
     42       2.0300      1.00000
     43       2.3951      1.00000
     44       2.3951      1.00000
     45       5.7457      0.00000
     46       5.7457      0.00000
     47       5.8086      0.00000
     48       5.8086      0.00000
     49       5.9799      0.00000
     50       5.9800      0.00000
     51       6.2633      0.00000
     52       6.2633      0.00000
     53       6.5502      0.00000
     54       6.5502      0.00000
     55       6.8943      0.00000
     56       6.8943      0.00000
     57       7.5705      0.00000
     58       7.5705      0.00000
     59       7.6318      0.00000
     60       7.6319      0.00000
     61       8.0710      0.00000
     62       8.0710      0.00000
     63       8.4617      0.00000
     64       8.4618      0.00000
     65      15.6344      0.00000
     66      15.6344      0.00000
     67      16.4696      0.00000
     68      16.4696      0.00000
     69      18.2685      0.00000
     70      18.2685      0.00000
     71      19.1602      0.00000
     72      19.1602      0.00000

 k-point   142 :      -0.1000    0.4286    0.5000
  band No.  band energies     occupation 
      1     -44.8068      1.00000
      2     -44.8068      1.00000
      3     -44.8052      1.00000
      4     -44.8052      1.00000
      5     -44.7806      1.00000
      6     -44.7806      1.00000
      7     -44.7089      1.00000
      8     -44.7089      1.00000
      9     -44.6257      1.00000
     10     -44.6257      1.00000
     11     -44.6091      1.00000
     12     -44.6091      1.00000
     13     -16.2292      1.00000
     14     -16.2292      1.00000
     15     -15.3257      1.00000
     16     -15.3257      1.00000
     17     -14.7615      1.00000
     18     -14.7615      1.00000
     19     -14.6721      1.00000
     20     -14.6721      1.00000
     21      -2.4459      1.00000
     22      -2.4459      1.00000
     23      -2.0419      1.00000
     24      -2.0418      1.00000
     25      -1.3506      1.00000
     26      -1.3506      1.00000
     27      -1.2388      1.00000
     28      -1.2388      1.00000
     29      -0.5570      1.00000
     30      -0.5570      1.00000
     31       0.4149      1.00000
     32       0.4150      1.00000
     33       0.5349      1.00000
     34       0.5349      1.00000
     35       0.8340      1.00000
     36       0.8340      1.00000
     37       1.2048      1.00000
     38       1.2048      1.00000
     39       1.5031      1.00000
     40       1.5031      1.00000
     41       2.0684      1.00000
     42       2.0684      1.00000
     43       2.6278      1.00000
     44       2.6278      1.00000
     45       5.5908      0.00000
     46       5.5908      0.00000
     47       5.6388      0.00000
     48       5.6389      0.00000
     49       5.7865      0.00000
     50       5.7865      0.00000
     51       6.0774      0.00000
     52       6.0774      0.00000
     53       6.6005      0.00000
     54       6.6005      0.00000
     55       7.0370      0.00000
     56       7.0370      0.00000
     57       7.6813      0.00000
     58       7.6813      0.00000
     59       7.9823      0.00000
     60       7.9824      0.00000
     61       8.2508      0.00000
     62       8.2508      0.00000
     63       8.4035      0.00000
     64       8.4036      0.00000
     65      15.1770      0.00000
     66      15.1770      0.00000
     67      16.0194      0.00000
     68      16.0194      0.00000
     69      17.5929      0.00000
     70      17.5929      0.00000
     71      18.5536      0.00000
     72      18.5536      0.00000


--------------------------------------------------------------------------------------------------------


 soft charge-density along one line, spin component           1
         0         1         2         3         4         5         6         7         8         9
 total charge-density along one line
 
 soft charge-density along one line, spin component           2
         0         1         2         3         4         5         6         7         8         9
 total charge-density along one line
 
 pseudopotential strength for first ion, spin component:           1
-47.463  -0.004  -0.000  10.142  -0.002   0.000  -0.000  -0.006
 -0.004 -47.472   0.000  -0.002  10.153  -0.000  -0.000   0.006
 -0.000   0.000 -47.502   0.000  -0.000  10.171   0.007  -0.000
 10.142  -0.002   0.000   4.876   0.001   0.000   0.000  -0.000
 -0.002  10.153  -0.000   0.001   4.872  -0.000   0.000  -0.001
  0.000  -0.000  10.171   0.000  -0.000   4.867  -0.006   0.000
 -0.000  -0.000   0.007   0.000   0.000  -0.006  -6.109   0.000
 -0.006   0.006  -0.000  -0.000  -0.001   0.000   0.000  -5.849
 -0.001  -0.030   0.000   0.001   0.012  -0.000  -0.000  -0.280
 -0.000  -0.000  -0.019   0.000   0.000   0.008   0.550  -0.000
 -0.001  -0.007  -0.000  -0.003   0.004  -0.000   0.000   0.398
 -0.000  -0.000   0.007   0.000   0.000  -0.006  -6.547   0.000
 -0.006   0.006  -0.000  -0.000  -0.001   0.000   0.000  -6.291
 -0.001  -0.029   0.000   0.001   0.012  -0.000  -0.000  -0.276
 -0.000  -0.000  -0.019   0.000   0.000   0.008   0.542  -0.000
 -0.001  -0.006  -0.000  -0.003   0.004  -0.000   0.000   0.392
 -0.002   0.010   0.000   0.000   0.000   0.000   0.000  -0.002
 -0.004   0.020   0.000   0.001   0.001   0.000   0.000  -0.005
 pseudopotential strength for first ion, spin component:           2
-44.687   0.001  -0.000   8.847  -0.001   0.000  -0.000  -0.018
  0.001 -44.761  -0.000  -0.001   8.878   0.000  -0.000   0.004
 -0.000  -0.000 -44.818   0.000   0.000   8.905   0.001  -0.000
  8.847  -0.001   0.000   5.223  -0.002   0.000  -0.000   0.005
 -0.001   8.878   0.000  -0.002   5.220   0.000  -0.000   0.001
  0.000   0.000   8.905   0.000   0.000   5.216   0.001  -0.000
 -0.000  -0.000   0.001  -0.000  -0.000   0.001  -3.757  -0.000
 -0.018   0.004  -0.000   0.005   0.001  -0.000  -0.000  -3.905
 -0.002  -0.019   0.000   0.002  -0.001   0.000  -0.000   0.241
 -0.000  -0.000  -0.012  -0.000  -0.000  -0.000  -0.467  -0.000
 -0.007   0.003  -0.000   0.003  -0.003  -0.000   0.000  -0.337
 -0.000  -0.000   0.001  -0.000  -0.000   0.001  -4.233  -0.000
 -0.018   0.004  -0.000   0.005   0.001  -0.000  -0.000  -4.379
 -0.002  -0.018   0.000   0.001  -0.001   0.000  -0.000   0.238
 -0.000  -0.000  -0.012  -0.000  -0.000  -0.000  -0.462  -0.000
 -0.007   0.003  -0.000   0.002  -0.002  -0.000   0.000  -0.333
 -0.001   0.004  -0.000   0.000   0.001  -0.000   0.000   0.000
 -0.002   0.008  -0.000   0.001   0.003  -0.000   0.000   0.001
 total augmentation occupancy for first ion, spin component:           1
  1.984   0.000  -0.000  -0.064  -0.000  -0.000  -0.000   0.005   0.003  -0.000   0.004   0.000  -0.004  -0.002   0.000  -0.003
  0.000   1.984  -0.000  -0.000  -0.063  -0.000  -0.000   0.004  -0.015  -0.000  -0.006   0.000  -0.004   0.015   0.000   0.005
 -0.000  -0.000   1.984  -0.000  -0.000  -0.062   0.006  -0.000   0.000  -0.004  -0.000  -0.005   0.000  -0.000   0.004   0.000
 -0.064  -0.000  -0.000   0.245  -0.005  -0.000  -0.000   0.080   0.036  -0.000   0.083   0.000  -0.080  -0.038   0.000  -0.081
 -0.000  -0.063  -0.000  -0.005   0.264   0.000  -0.000  -0.003  -0.178  -0.000  -0.094   0.000  -0.011   0.188   0.000   0.090
 -0.000  -0.000  -0.062  -0.000   0.000   0.287   0.131  -0.000   0.000  -0.034  -0.000  -0.127   0.000  -0.000   0.038   0.000
 -0.000  -0.000   0.006  -0.000  -0.000   0.131   6.755  -0.000   0.000  -1.622  -0.000  -6.064   0.000  -0.000  -0.004   0.000
  0.005   0.004  -0.000   0.080  -0.003  -0.000  -0.000   5.709   0.725   0.000  -0.782   0.000  -5.693   0.103  -0.000  -0.398
  0.003  -0.015   0.000   0.036  -0.178   0.000   0.000   0.725   8.482  -0.000   0.324  -0.000   0.128  -6.470  -0.000   0.180
 -0.000  -0.000  -0.004  -0.000  -0.000  -0.034  -1.622   0.000  -0.000   7.024  -0.000  -0.025  -0.000   0.000  -6.449   0.000
  0.004  -0.006  -0.000   0.083  -0.094  -0.000  -0.000  -0.782   0.324  -0.000   8.206   0.000  -0.420   0.174   0.000  -6.561
  0.000   0.000  -0.005   0.000   0.000  -0.127  -6.064   0.000  -0.000  -0.025   0.000   6.392  -0.000   0.000   1.422  -0.000
 -0.004  -0.004   0.000  -0.080  -0.011   0.000   0.000  -5.693   0.128  -0.000  -0.420  -0.000   6.584  -0.843   0.000   1.440
 -0.002   0.015  -0.000  -0.038   0.188  -0.000  -0.000   0.103  -6.470   0.000   0.174   0.000  -0.843   5.673  -0.000  -0.601
  0.000   0.000   0.004   0.000   0.000   0.038  -0.004  -0.000  -0.000  -6.449   0.000   1.422   0.000  -0.000   6.890  -0.000
 -0.003   0.005   0.000  -0.081   0.090   0.000   0.000  -0.398   0.180   0.000  -6.561  -0.000   1.440  -0.601  -0.000   6.068
  0.004  -0.026   0.000  -0.014   0.032  -0.000  -0.000   0.365  -0.018   0.000  -0.828   0.000  -0.355   0.014  -0.000   0.809
 -0.002   0.014  -0.000   0.002  -0.006   0.000   0.000  -0.090  -0.001  -0.000   0.199  -0.000   0.093   0.000   0.000  -0.188
 total augmentation occupancy for first ion, spin component:           2
 -0.003   0.000  -0.000  -0.009   0.000  -0.000   0.000  -0.003   0.000   0.000  -0.003  -0.000   0.003  -0.000  -0.000   0.002
  0.000  -0.003   0.000   0.000  -0.009   0.000   0.000  -0.001   0.001   0.000   0.001  -0.000   0.001  -0.001  -0.000  -0.001
 -0.000   0.000  -0.003  -0.000   0.000  -0.009  -0.001   0.000  -0.000   0.001   0.000   0.002  -0.000   0.000  -0.001  -0.000
 -0.009   0.000  -0.000   0.015  -0.001   0.000  -0.000   0.014   0.028   0.000   0.006  -0.000  -0.009  -0.017  -0.000  -0.003
  0.000  -0.009   0.000  -0.001   0.020   0.000   0.000  -0.015  -0.036   0.000  -0.048  -0.000   0.011   0.020  -0.000   0.032
 -0.000   0.000  -0.009   0.000   0.000   0.025   0.046  -0.000   0.000  -0.020   0.000  -0.030  -0.000   0.000   0.014  -0.000
  0.000   0.000  -0.001  -0.000   0.000   0.046   3.212   0.000   0.000  -3.847  -0.000  -1.618  -0.000  -0.000   2.658   0.000
 -0.003  -0.001   0.000   0.014  -0.015  -0.000   0.000   1.373   1.944   0.000  -2.624  -0.000  -0.316  -1.352  -0.000   1.806
  0.000   0.001  -0.000   0.028  -0.036   0.000   0.000   1.944   6.503  -0.000   1.318  -0.000  -1.325  -3.911   0.000  -0.962
  0.000   0.000   0.001   0.000   0.000  -0.020  -3.847   0.000  -0.000   3.034  -0.000   2.637  -0.000   0.000  -1.491   0.000
 -0.003   0.001   0.000   0.006  -0.048   0.000  -0.000  -2.624   1.318  -0.000   5.481   0.000   1.778  -0.966   0.000  -3.154
 -0.000  -0.000   0.002  -0.000  -0.000  -0.030  -1.618  -0.000  -0.000   2.637   0.000   0.646   0.000  -0.000  -1.883  -0.000
  0.003   0.001  -0.000  -0.009   0.011  -0.000  -0.000  -0.316  -1.325  -0.000   1.778   0.000  -0.292   0.959   0.000  -1.278
 -0.000  -0.001   0.000  -0.017   0.020   0.000  -0.000  -1.352  -3.911   0.000  -0.966  -0.000   0.959   2.281  -0.000   0.721
 -0.000  -0.000  -0.001  -0.000  -0.000   0.014   2.658  -0.000   0.000  -1.491   0.000  -1.883   0.000  -0.000   0.539  -0.000
  0.002  -0.001  -0.000  -0.003   0.032  -0.000   0.000   1.806  -0.962   0.000  -3.154  -0.000  -1.278   0.721  -0.000   1.713
 -0.001   0.004  -0.001  -0.001   0.017   0.000  -0.000   0.091  -0.048   0.000  -0.155   0.000  -0.046   0.042  -0.000   0.075
  0.001  -0.002   0.000  -0.000  -0.002  -0.000   0.000  -0.015   0.007  -0.000   0.034  -0.000   0.006  -0.008   0.000  -0.013


------------------------ aborting loop because EDIFF is reached ----------------------------------------


    FORLOC:  cpu time    0.0021: real time    0.0021
    FORNL :  cpu time    4.1708: real time    4.1825
    STRESS:  cpu time  112.4650: real time  112.8128
    FORCOR:  cpu time    0.0850: real time    0.0852
    OFIELD:  cpu time    0.0006: real time    0.0006

  FORCE on cell =-STRESS in cart. coord.  units (eV):
  Direction    XX          YY          ZZ          XY          YZ          ZX
  --------------------------------------------------------------------------------------
  Alpha Z   464.22373   464.22373   464.22373
  Ewald   -1252.90574 -4062.72102 -2277.29543    -0.00011     0.00193    -0.00007
  Hartree  2026.82069   131.58019  1367.54464     0.00004     0.00123    -0.00006
  E(xc)    -593.21656  -592.07753  -592.54201    -0.00000     0.00000     0.00000
  Local   -2402.72232  2251.38350  -745.34776     0.00007    -0.00318     0.00013
  n-local  -295.81446  -305.13633  -301.94118    -0.00001     0.00003     0.00000
  augment   475.70602   485.45918   481.12198     0.00000     0.00001    -0.00000
  Kinetic  1577.93037  1627.25285  1604.38954     0.00000    -0.00001     0.00004
  Fock        0.00000     0.00000     0.00000     0.00000     0.00000     0.00000
  -------------------------------------------------------------------------------------
  Total       0.02174    -0.03543     0.15351    -0.00001     0.00001     0.00003
  in kB       0.29062    -0.47366     2.05233    -0.00012     0.00014     0.00046
  external pressure =        0.62 kB  Pullay stress =        0.00 kB


 VOLUME and BASIS-vectors are now :
 -----------------------------------------------------------------------------
  energy-cutoff  :      520.00
  volume of cell :      119.84
      direct lattice vectors                 reciprocal lattice vectors
     2.858610281  0.000000436 -0.000000733     0.349820333  0.000000051  0.000000025
    -0.000000665  4.568992368  0.000000412    -0.000000033  0.218866638  0.000000108
    -0.000000667 -0.000004528  9.175166632     0.000000028 -0.000000010  0.108989846

  length of vectors
     2.858610281  4.568992368  9.175166632     0.349820333  0.218866638  0.108989846


 FORCES acting on ions:
    Electron-Ion                     Ewald-Force                    Non-Local-Force
 -----------------------------------------------------------------------------------------------
   0.520E-02 -.365E+02 0.132E+03   -.456E-02 0.366E+02 -.133E+03   -.641E-03 -.163E-01 0.135E+01
   0.355E-02 0.365E+02 -.132E+03   -.293E-02 -.366E+02 0.133E+03   -.583E-03 0.163E-01 -.135E+01
   0.411E-02 -.365E+02 -.132E+03   -.347E-02 0.366E+02 0.133E+03   -.598E-03 -.163E-01 -.135E+01
   0.576E-02 0.365E+02 0.132E+03   -.511E-02 -.366E+02 -.133E+03   -.657E-03 0.163E-01 0.135E+01
   -.538E-03 -.361E+03 0.470E+02   0.689E-03 0.388E+03 -.506E+02   -.192E-03 -.266E+02 0.351E+01
   -.197E-02 -.361E+03 -.470E+02   0.226E-02 0.388E+03 0.506E+02   -.288E-03 -.266E+02 -.351E+01
   -.127E-02 0.361E+03 0.470E+02   0.148E-02 -.388E+03 -.506E+02   -.218E-03 0.266E+02 0.351E+01
   -.175E-02 0.361E+03 -.470E+02   0.203E-02 -.388E+03 0.506E+02   -.308E-03 0.266E+02 -.351E+01
   -.117E-02 -.601E+02 -.660E+02   0.147E-02 0.633E+02 0.697E+02   -.342E-03 -.324E+01 -.371E+01
   -.213E-02 0.601E+02 -.660E+02   0.251E-02 -.633E+02 0.698E+02   -.364E-03 0.324E+01 -.371E+01
   -.275E-02 -.601E+02 0.660E+02   0.321E-02 0.633E+02 -.698E+02   -.434E-03 -.324E+01 0.371E+01
   -.201E-02 0.601E+02 0.660E+02   0.241E-02 -.633E+02 -.697E+02   -.413E-03 0.324E+01 0.371E+01
 -----------------------------------------------------------------------------------------------
   0.502E-02 -.100E-03 0.330E-03   0.700E-13 0.107E-12 -.711E-13   -.504E-02 0.102E-03 -.330E-03
 
 
 POSITION                                       TOTAL-FORCE (eV/Angst)
 -----------------------------------------------------------------------------------
      0.71466      0.16936      7.94199         0.000001      0.031245      0.007561
      2.14396      4.39962      1.23318         0.000041     -0.031211     -0.007516
      2.14396      2.45386      5.82076         0.000038      0.031315     -0.007583
      0.71466      2.11513      3.35441        -0.000004     -0.031227      0.007579
      0.71465      3.27072      4.86505        -0.000040     -0.018510     -0.010350
      2.14395      0.98621      8.89770         0.000004     -0.018470      0.010324
      0.71465      3.58278      0.27747        -0.000005      0.018434     -0.010360
      2.14396      1.29828      4.31011        -0.000028      0.018430      0.010366
      0.71465      0.71740      2.07366        -0.000040      0.004527     -0.000787
      0.71465      1.56709      6.66123         0.000014     -0.004637     -0.000691
      2.14395      3.00190      2.51394         0.000029      0.004592      0.000680
      2.14395      3.85158      7.10152        -0.000012     -0.004487      0.000776
 -----------------------------------------------------------------------------------
    total drift:                               -0.000020      0.000001      0.000001


--------------------------------------------------------------------------------------------------------



  FREE ENERGIE OF THE ION-ELECTRON SYSTEM (eV)
  ---------------------------------------------------
  free  energy   TOTEN  =      -130.70317194 eV

  energy  without entropy=     -130.70317194  energy(sigma->0) =     -130.70317194
 


--------------------------------------------------------------------------------------------------------


    POTLOK:  cpu time    1.1954: real time    1.1983


--------------------------------------------------------------------------------------------------------


 stress matrix after NEB project (eV)
      0.02174     -0.00001      0.00003
     -0.00001     -0.03543      0.00001
      0.00003      0.00001      0.15351
  FORCES: max atom, RMS     0.032220    0.022383
  FORCE total and by dimension    0.077536    0.031315
  Stress total and by dimension    0.159034    0.153507
 writing wavefunctions
     LOOP+:  cpu time  420.8888: real time  425.4631
    4ORBIT:  cpu time    0.0000: real time    0.0000

 total amount of memory used by VASP MPI-rank0   281588. kBytes
=======================================================================

   base      :      30000. kBytes
   nonl-proj :      33856. kBytes
   fftplans  :       1491. kBytes
   grid      :       5125. kBytes
   one-center:         93. kBytes
   wavefun   :     211023. kBytes
 
  
  
 General timing and accounting informations for this job:
 ========================================================
  
                  Total CPU time used (sec):      441.154
                            User time (sec):      427.986
                          System time (sec):       13.168
                         Elapsed time (sec):      446.514
  
                   Maximum memory used (kb):      347312.
                   Average memory used (kb):           0.
  
                          Minor page faults:       602188
                          Major page faults:            0
                 Voluntary context switches:          626
