<?xml version="1.0" encoding="ISO-8859-1"?>
<modeling>
 <generator>
  <i name="program" type="string">vasp </i>
  <i name="version" type="string">5.4.4.18Apr17-6-g9f103f2a35  </i>
  <i name="subversion" type="string">(build Nov 08 2022 17:27:33) complex            parallel </i>
  <i name="platform" type="string">LinuxIFC </i>
  <i name="date" type="string">2022 11 22 </i>
  <i name="time" type="string">23:35:36 </i>
 </generator>
 <incar>
  <i type="string" name="PREC">accurate</i>
  <i type="string" name="ALGO"> All</i>
  <i type="int" name="ISPIN">     2</i>
  <i type="int" name="ICHARG">     0</i>
  <i type="int" name="NELM">   200</i>
  <i type="int" name="IBRION">     2</i>
  <i name="EDIFF">      0.00000100</i>
  <i name="EDIFFG">     -0.03000000</i>
  <i type="int" name="NSW">     0</i>
  <i type="int" name="ISIF">     3</i>
  <i type="int" name="ISYM">     0</i>
  <i name="ENCUT">    520.00000000</i>
  <i name="ENAUG">   1040.00000000</i>
  <v name="MAGMOM">      5.00000000      5.00000000      5.00000000      5.00000000      0.60000000      0.60000000      0.60000000      0.60000000      0.60000000      0.60000000      0.60000000      0.60000000</v>
  <i type="logical" name="LREAL"> F  </i>
  <i type="int" name="ISMEAR">     0</i>
  <i name="SIGMA">      0.01000000</i>
  <i name="KSPACING">      0.22000000</i>
  <i type="int" name="LMAXMIX">     4</i>
  <i type="logical" name="LWAVE"> T  </i>
  <i type="logical" name="LCHARG"> T  </i>
  <i type="logical" name="LVTOT"> T  </i>
  <i type="logical" name="LVHAR"> T  </i>
  <i type="int" name="LORBIT">     0</i>
  <i type="logical" name="LELF"> T  </i>
  <i type="logical" name="LASPH"> T  </i>
  <i type="logical" name="LAECHG"> T  </i>
  <v type="int" name="KPOINT_BSE">    -1     0     0     0</v>
  <i type="int" name="NELM">   200</i>
  <i type="string" name="GGA"> Pe</i>
  <i type="string" name="METAGGA"> R2scan</i>
  <i type="logical" name="LASPH"> T  </i>
  <i type="int" name="LMIXTAU">    -1</i>
 </incar>
 <structure name="primitive_cell" >
  <crystal>
   <varray name="basis" >
    <v>       2.85861028       0.00000044      -0.00000073 </v>
    <v>      -0.00000066       4.56899237       0.00000041 </v>
    <v>      -0.00000067      -0.00000453       9.17516663 </v>
   </varray>
   <i name="volume">    119.83656289 </i>
   <varray name="rec_basis" >
    <v>       0.34982033       0.00000005       0.00000003 </v>
    <v>      -0.00000003       0.21886664       0.00000011 </v>
    <v>       0.00000003      -0.00000001       0.10898985 </v>
   </varray>
  </crystal>
  <varray name="positions" >
   <v>       0.25000216       0.03706890      -0.13440389 </v>
   <v>      -0.25000140      -0.15701705      -0.22600680 </v>
   <v>       0.24999818       0.34298455      -0.27399324 </v>
   <v>       0.24999890      -0.21584990       0.03024147 </v>
   <v>      -0.25000119       0.21585044      -0.03024122 </v>
   <v>      -0.24999835      -0.03706900       0.13440384 </v>
   <v>       0.24999926       0.15701588       0.22600744 </v>
   <v>       0.24999993      -0.28414882      -0.46975854 </v>
   <v>      -0.24999827      -0.46293144      -0.36559637 </v>
   <v>      -0.25000004       0.28415009       0.46975854 </v>
   <v>      -0.25000181      -0.34298397       0.27399346 </v>
   <v>       0.25000265       0.46293133       0.36559631 </v>
  </varray>
 </structure>
 <varray name="primitive_index" >
  <v type="int" >        1 </v>
  <v type="int" >       12 </v>
  <v type="int" >       10 </v>
  <v type="int" >        7 </v>
  <v type="int" >        6 </v>
  <v type="int" >        2 </v>
  <v type="int" >        9 </v>
  <v type="int" >        5 </v>
  <v type="int" >        3 </v>
  <v type="int" >        8 </v>
  <v type="int" >       11 </v>
  <v type="int" >        4 </v>
 </varray>
 <kpoints>
  <generation param="Gamma">
   <v type="int" name="divisions">      10        7        4 </v>
   <v name="usershift">      0.00000000       0.00000000       0.00000000 </v>
   <v name="genvec1">      0.10000000       0.00000000       0.00000000 </v>
   <v name="genvec2">     -0.00000000       0.14285714       0.00000000 </v>
   <v name="genvec3">      0.00000000      -0.00000000       0.25000000 </v>
   <v name="shift">      0.00000000       0.00000000       0.00000000 </v>
  </generation>
  <varray name="kpointlist" >
   <v>       0.00000000       0.00000000       0.00000000 </v>
   <v>       0.10000000       0.00000000       0.00000000 </v>
   <v>       0.20000000      -0.00000000      -0.00000000 </v>
   <v>       0.30000000       0.00000000      -0.00000000 </v>
   <v>       0.40000000      -0.00000000      -0.00000000 </v>
   <v>       0.50000000      -0.00000000      -0.00000000 </v>
   <v>       0.00000000       0.14285714      -0.00000000 </v>
   <v>       0.10000000       0.14285714      -0.00000000 </v>
   <v>       0.20000000       0.14285714      -0.00000000 </v>
   <v>       0.30000000       0.14285714      -0.00000000 </v>
   <v>       0.40000000       0.14285714      -0.00000000 </v>
   <v>       0.50000000       0.14285714      -0.00000000 </v>
   <v>      -0.40000000       0.14285714      -0.00000000 </v>
   <v>      -0.30000000       0.14285714      -0.00000000 </v>
   <v>      -0.20000000       0.14285714      -0.00000000 </v>
   <v>      -0.10000000       0.14285714      -0.00000000 </v>
   <v>      -0.00000000       0.28571429      -0.00000000 </v>
   <v>       0.10000000       0.28571429      -0.00000000 </v>
   <v>       0.20000000       0.28571429      -0.00000000 </v>
   <v>       0.30000000       0.28571429      -0.00000000 </v>
   <v>       0.40000000       0.28571429      -0.00000000 </v>
   <v>       0.50000000       0.28571429      -0.00000000 </v>
   <v>      -0.40000000       0.28571429      -0.00000000 </v>
   <v>      -0.30000000       0.28571429      -0.00000000 </v>
   <v>      -0.20000000       0.28571429      -0.00000000 </v>
   <v>      -0.10000000       0.28571429      -0.00000000 </v>
   <v>       0.00000000       0.42857143      -0.00000000 </v>
   <v>       0.10000000       0.42857143      -0.00000000 </v>
   <v>       0.20000000       0.42857143      -0.00000000 </v>
   <v>       0.30000000       0.42857143      -0.00000000 </v>
   <v>       0.40000000       0.42857143      -0.00000000 </v>
   <v>       0.50000000       0.42857143      -0.00000000 </v>
   <v>      -0.40000000       0.42857143      -0.00000000 </v>
   <v>      -0.30000000       0.42857143      -0.00000000 </v>
   <v>      -0.20000000       0.42857143      -0.00000000 </v>
   <v>      -0.10000000       0.42857143      -0.00000000 </v>
   <v>       0.00000000       0.00000000       0.25000000 </v>
   <v>       0.10000000       0.00000000       0.25000000 </v>
   <v>       0.20000000      -0.00000000       0.25000000 </v>
   <v>       0.30000000      -0.00000000       0.25000000 </v>
   <v>       0.40000000      -0.00000000       0.25000000 </v>
   <v>       0.50000000       0.00000000       0.25000000 </v>
   <v>      -0.40000000       0.00000000       0.25000000 </v>
   <v>      -0.30000000      -0.00000000       0.25000000 </v>
   <v>      -0.20000000      -0.00000000       0.25000000 </v>
   <v>      -0.10000000       0.00000000       0.25000000 </v>
   <v>      -0.00000000       0.14285714       0.25000000 </v>
   <v>       0.10000000       0.14285714       0.25000000 </v>
   <v>       0.20000000       0.14285714       0.25000000 </v>
   <v>       0.30000000       0.14285714       0.25000000 </v>
   <v>       0.40000000       0.14285714       0.25000000 </v>
   <v>       0.50000000       0.14285714       0.25000000 </v>
   <v>      -0.40000000       0.14285714       0.25000000 </v>
   <v>      -0.30000000       0.14285714       0.25000000 </v>
   <v>      -0.20000000       0.14285714       0.25000000 </v>
   <v>      -0.10000000       0.14285714       0.25000000 </v>
   <v>       0.00000000       0.28571429       0.25000000 </v>
   <v>       0.10000000       0.28571429       0.25000000 </v>
   <v>       0.20000000       0.28571429       0.25000000 </v>
   <v>       0.30000000       0.28571429       0.25000000 </v>
   <v>       0.40000000       0.28571429       0.25000000 </v>
   <v>       0.50000000       0.28571429       0.25000000 </v>
   <v>      -0.40000000       0.28571429       0.25000000 </v>
   <v>      -0.30000000       0.28571429       0.25000000 </v>
   <v>      -0.20000000       0.28571429       0.25000000 </v>
   <v>      -0.10000000       0.28571429       0.25000000 </v>
   <v>       0.00000000       0.42857143       0.25000000 </v>
   <v>       0.10000000       0.42857143       0.25000000 </v>
   <v>       0.20000000       0.42857143       0.25000000 </v>
   <v>       0.30000000       0.42857143       0.25000000 </v>
   <v>       0.40000000       0.42857143       0.25000000 </v>
   <v>       0.50000000       0.42857143       0.25000000 </v>
   <v>      -0.40000000       0.42857143       0.25000000 </v>
   <v>      -0.30000000       0.42857143       0.25000000 </v>
   <v>      -0.20000000       0.42857143       0.25000000 </v>
   <v>      -0.10000000       0.42857143       0.25000000 </v>
   <v>      -0.00000000      -0.42857143       0.25000000 </v>
   <v>       0.10000000      -0.42857143       0.25000000 </v>
   <v>       0.20000000      -0.42857143       0.25000000 </v>
   <v>       0.30000000      -0.42857143       0.25000000 </v>
   <v>       0.40000000      -0.42857143       0.25000000 </v>
   <v>       0.50000000      -0.42857143       0.25000000 </v>
   <v>      -0.40000000      -0.42857143       0.25000000 </v>
   <v>      -0.30000000      -0.42857143       0.25000000 </v>
   <v>      -0.20000000      -0.42857143       0.25000000 </v>
   <v>      -0.10000000      -0.42857143       0.25000000 </v>
   <v>      -0.00000000      -0.28571429       0.25000000 </v>
   <v>       0.10000000      -0.28571429       0.25000000 </v>
   <v>       0.20000000      -0.28571429       0.25000000 </v>
   <v>       0.30000000      -0.28571429       0.25000000 </v>
   <v>       0.40000000      -0.28571429       0.25000000 </v>
   <v>       0.50000000      -0.28571429       0.25000000 </v>
   <v>      -0.40000000      -0.28571429       0.25000000 </v>
   <v>      -0.30000000      -0.28571429       0.25000000 </v>
   <v>      -0.20000000      -0.28571429       0.25000000 </v>
   <v>      -0.10000000      -0.28571429       0.25000000 </v>
   <v>      -0.00000000      -0.14285714       0.25000000 </v>
   <v>       0.10000000      -0.14285714       0.25000000 </v>
   <v>       0.20000000      -0.14285714       0.25000000 </v>
   <v>       0.30000000      -0.14285714       0.25000000 </v>
   <v>       0.40000000      -0.14285714       0.25000000 </v>
   <v>       0.50000000      -0.14285714       0.25000000 </v>
   <v>      -0.40000000      -0.14285714       0.25000000 </v>
   <v>      -0.30000000      -0.14285714       0.25000000 </v>
   <v>      -0.20000000      -0.14285714       0.25000000 </v>
   <v>      -0.10000000      -0.14285714       0.25000000 </v>
   <v>       0.00000000       0.00000000       0.50000000 </v>
   <v>       0.10000000       0.00000000       0.50000000 </v>
   <v>       0.20000000       0.00000000       0.50000000 </v>
   <v>       0.30000000       0.00000000       0.50000000 </v>
   <v>       0.40000000      -0.00000000       0.50000000 </v>
   <v>       0.50000000      -0.00000000       0.50000000 </v>
   <v>      -0.00000000       0.14285714       0.50000000 </v>
   <v>       0.10000000       0.14285714       0.50000000 </v>
   <v>       0.20000000       0.14285714       0.50000000 </v>
   <v>       0.30000000       0.14285714       0.50000000 </v>
   <v>       0.40000000       0.14285714       0.50000000 </v>
   <v>       0.50000000       0.14285714       0.50000000 </v>
   <v>      -0.40000000       0.14285714       0.50000000 </v>
   <v>      -0.30000000       0.14285714       0.50000000 </v>
   <v>      -0.20000000       0.14285714       0.50000000 </v>
   <v>      -0.10000000       0.14285714       0.50000000 </v>
   <v>      -0.00000000       0.28571429       0.50000000 </v>
   <v>       0.10000000       0.28571429       0.50000000 </v>
   <v>       0.20000000       0.28571429       0.50000000 </v>
   <v>       0.30000000       0.28571429       0.50000000 </v>
   <v>       0.40000000       0.28571429       0.50000000 </v>
   <v>       0.50000000       0.28571429       0.50000000 </v>
   <v>      -0.40000000       0.28571429       0.50000000 </v>
   <v>      -0.30000000       0.28571429       0.50000000 </v>
   <v>      -0.20000000       0.28571429       0.50000000 </v>
   <v>      -0.10000000       0.28571429       0.50000000 </v>
   <v>       0.00000000       0.42857143       0.50000000 </v>
   <v>       0.10000000       0.42857143       0.50000000 </v>
   <v>       0.20000000       0.42857143       0.50000000 </v>
   <v>       0.30000000       0.42857143       0.50000000 </v>
   <v>       0.40000000       0.42857143       0.50000000 </v>
   <v>       0.50000000       0.42857143       0.50000000 </v>
   <v>      -0.40000000       0.42857143       0.50000000 </v>
   <v>      -0.30000000       0.42857143       0.50000000 </v>
   <v>      -0.20000000       0.42857143       0.50000000 </v>
   <v>      -0.10000000       0.42857143       0.50000000 </v>
  </varray>
  <varray name="weights" >
   <v>       0.00357143 </v>
   <v>       0.00714286 </v>
   <v>       0.00714286 </v>
   <v>       0.00714286 </v>
   <v>       0.00714286 </v>
   <v>       0.00357143 </v>
   <v>       0.00714286 </v>
   <v>       0.00714286 </v>
   <v>       0.00714286 </v>
   <v>       0.00714286 </v>
   <v>       0.00714286 </v>
   <v>       0.00714286 </v>
   <v>       0.00714286 </v>
   <v>       0.00714286 </v>
   <v>       0.00714286 </v>
   <v>       0.00714286 </v>
   <v>       0.00714286 </v>
   <v>       0.00714286 </v>
   <v>       0.00714286 </v>
   <v>       0.00714286 </v>
   <v>       0.00714286 </v>
   <v>       0.00714286 </v>
   <v>       0.00714286 </v>
   <v>       0.00714286 </v>
   <v>       0.00714286 </v>
   <v>       0.00714286 </v>
   <v>       0.00714286 </v>
   <v>       0.00714286 </v>
   <v>       0.00714286 </v>
   <v>       0.00714286 </v>
   <v>       0.00714286 </v>
   <v>       0.00714286 </v>
   <v>       0.00714286 </v>
   <v>       0.00714286 </v>
   <v>       0.00714286 </v>
   <v>       0.00714286 </v>
   <v>       0.00714286 </v>
   <v>       0.00714286 </v>
   <v>       0.00714286 </v>
   <v>       0.00714286 </v>
   <v>       0.00714286 </v>
   <v>       0.00714286 </v>
   <v>       0.00714286 </v>
   <v>       0.00714286 </v>
   <v>       0.00714286 </v>
   <v>       0.00714286 </v>
   <v>       0.00714286 </v>
   <v>       0.00714286 </v>
   <v>       0.00714286 </v>
   <v>       0.00714286 </v>
   <v>       0.00714286 </v>
   <v>       0.00714286 </v>
   <v>       0.00714286 </v>
   <v>       0.00714286 </v>
   <v>       0.00714286 </v>
   <v>       0.00714286 </v>
   <v>       0.00714286 </v>
   <v>       0.00714286 </v>
   <v>       0.00714286 </v>
   <v>       0.00714286 </v>
   <v>       0.00714286 </v>
   <v>       0.00714286 </v>
   <v>       0.00714286 </v>
   <v>       0.00714286 </v>
   <v>       0.00714286 </v>
   <v>       0.00714286 </v>
   <v>       0.00714286 </v>
   <v>       0.00714286 </v>
   <v>       0.00714286 </v>
   <v>       0.00714286 </v>
   <v>       0.00714286 </v>
   <v>       0.00714286 </v>
   <v>       0.00714286 </v>
   <v>       0.00714286 </v>
   <v>       0.00714286 </v>
   <v>       0.00714286 </v>
   <v>       0.00714286 </v>
   <v>       0.00714286 </v>
   <v>       0.00714286 </v>
   <v>       0.00714286 </v>
   <v>       0.00714286 </v>
   <v>       0.00714286 </v>
   <v>       0.00714286 </v>
   <v>       0.00714286 </v>
   <v>       0.00714286 </v>
   <v>       0.00714286 </v>
   <v>       0.00714286 </v>
   <v>       0.00714286 </v>
   <v>       0.00714286 </v>
   <v>       0.00714286 </v>
   <v>       0.00714286 </v>
   <v>       0.00714286 </v>
   <v>       0.00714286 </v>
   <v>       0.00714286 </v>
   <v>       0.00714286 </v>
   <v>       0.00714286 </v>
   <v>       0.00714286 </v>
   <v>       0.00714286 </v>
   <v>       0.00714286 </v>
   <v>       0.00714286 </v>
   <v>       0.00714286 </v>
   <v>       0.00714286 </v>
   <v>       0.00714286 </v>
   <v>       0.00714286 </v>
   <v>       0.00714286 </v>
   <v>       0.00714286 </v>
   <v>       0.00357143 </v>
   <v>       0.00714286 </v>
   <v>       0.00714286 </v>
   <v>       0.00714286 </v>
   <v>       0.00714286 </v>
   <v>       0.00357143 </v>
   <v>       0.00714286 </v>
   <v>       0.00714286 </v>
   <v>       0.00714286 </v>
   <v>       0.00714286 </v>
   <v>       0.00714286 </v>
   <v>       0.00714286 </v>
   <v>       0.00714286 </v>
   <v>       0.00714286 </v>
   <v>       0.00714286 </v>
   <v>       0.00714286 </v>
   <v>       0.00714286 </v>
   <v>       0.00714286 </v>
   <v>       0.00714286 </v>
   <v>       0.00714286 </v>
   <v>       0.00714286 </v>
   <v>       0.00714286 </v>
   <v>       0.00714286 </v>
   <v>       0.00714286 </v>
   <v>       0.00714286 </v>
   <v>       0.00714286 </v>
   <v>       0.00714286 </v>
   <v>       0.00714286 </v>
   <v>       0.00714286 </v>
   <v>       0.00714286 </v>
   <v>       0.00714286 </v>
   <v>       0.00714286 </v>
   <v>       0.00714286 </v>
   <v>       0.00714286 </v>
   <v>       0.00714286 </v>
   <v>       0.00714286 </v>
  </varray>
 </kpoints>
 <parameters>
  <separator name="general" >
   <i type="string" name="SYSTEM">unknown system</i>
   <i type="logical" name="LCOMPAT"> F  </i>
  </separator>
  <separator name="electronic" >
   <i type="string" name="PREC">accura</i>
   <i name="ENMAX">    520.00000000</i>
   <i name="ENAUG">   1040.00000000</i>
   <i name="EDIFF">      0.00000100</i>
   <i type="int" name="IALGO">    58</i>
   <i type="int" name="IWAVPR">    10</i>
   <i type="int" name="NBANDS">    72</i>
   <i name="NELECT">    100.00000000</i>
   <i type="int" name="TURBO">     0</i>
   <i type="int" name="IRESTART">     0</i>
   <i type="int" name="NREBOOT">     0</i>
   <i type="int" name="NMIN">     0</i>
   <i name="EREF">      0.00000000</i>
   <separator name="electronic smearing" >
    <i type="int" name="ISMEAR">     0</i>
    <i name="SIGMA">      0.01000000</i>
    <i name="KSPACING">      0.22000000</i>
    <i type="logical" name="KGAMMA"> T  </i>
   </separator>
   <separator name="electronic projectors" >
    <i type="logical" name="LREAL"> F  </i>
    <v name="ROPT">      0.00000000      0.00000000</v>
    <i type="int" name="LMAXPAW">  -100</i>
    <i type="int" name="LMAXMIX">     4</i>
    <i type="logical" name="NLSPLINE"> F  </i>
   </separator>
   <separator name="electronic startup" >
    <i type="int" name="ISTART">     1</i>
    <i type="int" name="ICHARG">     0</i>
    <i type="int" name="INIWAV">     1</i>
   </separator>
   <separator name="electronic spin" >
    <i type="int" name="ISPIN">     2</i>
    <i type="logical" name="LNONCOLLINEAR"> F  </i>
    <v name="MAGMOM">      5.00000000      5.00000000      5.00000000      5.00000000      0.60000000      0.60000000      0.60000000      0.60000000      0.60000000      0.60000000      0.60000000      0.60000000</v>
    <i name="NUPDOWN">     -1.00000000</i>
    <i type="logical" name="LSORBIT"> F  </i>
    <v name="SAXIS">      0.00000000      0.00000000      1.00000000</v>
    <i type="logical" name="LSPIRAL"> F  </i>
    <v name="QSPIRAL">      0.00000000      0.00000000      0.00000000</v>
    <i type="logical" name="LZEROZ"> F  </i>
   </separator>
   <separator name="electronic exchange-correlation" >
    <i type="logical" name="LASPH"> T  </i>
    <i type="logical" name="LMETAGGA"> F  </i>
   </separator>
   <separator name="electronic convergence" >
    <i type="int" name="NELM">   200</i>
    <i type="int" name="NELMDL">     0</i>
    <i type="int" name="NELMIN">     2</i>
    <i name="ENINI">    520.00000000</i>
    <separator name="electronic convergence detail" >
     <i type="logical" name="LDIAG"> T  </i>
     <i type="logical" name="LSUBROT"> F  </i>
     <i name="WEIMIN">      0.00000000</i>
     <i name="EBREAK">      0.00000000</i>
     <i name="DEPER">      0.30000000</i>
     <i type="int" name="NRMM">     4</i>
     <i name="TIME">      0.40000000</i>
    </separator>
   </separator>
   <separator name="electronic mixer" >
    <i name="AMIX">      0.40000000</i>
    <i name="BMIX">      1.00000000</i>
    <i name="AMIN">      0.10000000</i>
    <i name="AMIX_MAG">      1.60000000</i>
    <i name="BMIX_MAG">      1.00000000</i>
    <separator name="electronic mixer details" >
     <i type="int" name="IMIX">     4</i>
     <i type="logical" name="MIXFIRST"> F  </i>
     <i type="int" name="MAXMIX">   -45</i>
     <i name="WC">    100.00000000</i>
     <i type="int" name="INIMIX">     1</i>
     <i type="int" name="MIXPRE">     1</i>
     <i type="int" name="MREMOVE">     5</i>
    </separator>
   </separator>
   <separator name="electronic dipolcorrection" >
    <i type="logical" name="LDIPOL"> F  </i>
    <i type="logical" name="LMONO"> F  </i>
    <i type="int" name="IDIPOL">     0</i>
    <i name="EPSILON">      1.00000000</i>
    <v name="DIPOL">   -100.00000000   -100.00000000   -100.00000000</v>
    <i name="EFIELD">      0.00000000</i>
   </separator>
  </separator>
  <separator name="grids" >
   <i type="int" name="NGX">    24</i>
   <i type="int" name="NGY">    36</i>
   <i type="int" name="NGZ">    70</i>
   <i type="int" name="NGXF">    48</i>
   <i type="int" name="NGYF">    72</i>
   <i type="int" name="NGZF">   140</i>
   <i type="logical" name="ADDGRID"> F  </i>
  </separator>
  <separator name="ionic" >
   <i type="int" name="NSW">     0</i>
   <i type="int" name="IBRION">    -1</i>
   <i type="int" name="MDALGO">     0</i>
   <i type="int" name="ISIF">     3</i>
   <i name="PSTRESS">      0.00000000</i>
   <i name="EDIFFG">     -0.03000000</i>
   <i type="int" name="NFREE">     1</i>
   <i name="POTIM">      0.50000000</i>
   <i name="SMASS">     -3.00000000</i>
   <i name="SCALEE">      1.00000000</i>
  </separator>
  <separator name="ionic md" >
   <i name="TEBEG">      0.00010000</i>
   <i name="TEEND">      0.00010000</i>
   <i type="int" name="NBLOCK">     1</i>
   <i type="int" name="KBLOCK">     1</i>
   <i type="int" name="NPACO">   256</i>
   <i name="APACO">     16.00000000</i>
  </separator>
  <separator name="symmetry" >
   <i type="int" name="ISYM">     0</i>
   <i name="SYMPREC">      0.00001000</i>
  </separator>
  <separator name="dos" >
   <i type="int" name="LORBIT">     0</i>
   <v name="RWIGS">     -1.00000000     -1.00000000</v>
   <i type="int" name="NEDOS">   301</i>
   <i name="EMIN">     10.00000000</i>
   <i name="EMAX">    -10.00000000</i>
   <i name="EFERMI">      0.00000000</i>
  </separator>
  <separator name="writing" >
   <i type="int" name="NWRITE">     2</i>
   <i type="logical" name="LWAVE"> T  </i>
   <i type="logical" name="LDOWNSAMPLE"> F  </i>
   <i type="logical" name="LCHARG"> T  </i>
   <i type="logical" name="LPARD"> F  </i>
   <i type="logical" name="LVTOT"> F  </i>
   <i type="logical" name="LVHAR"> T  </i>
   <i type="logical" name="LELF"> T  </i>
   <i type="logical" name="LOPTICS"> F  </i>
   <v name="STM">      0.00000000      0.00000000      0.00000000      0.00000000      0.00000000      0.00000000      0.00000000</v>
  </separator>
  <separator name="performance" >
   <i type="int" name="NPAR">     4</i>
   <i type="int" name="NSIM">     4</i>
   <i type="int" name="NBLK">    -1</i>
   <i type="logical" name="LPLANE"> T  </i>
   <i type="logical" name="LSCALAPACK"> T  </i>
   <i type="logical" name="LSCAAWARE"> F  </i>
   <i type="logical" name="LSCALU"> F  </i>
   <i type="logical" name="LASYNC"> F  </i>
   <i type="logical" name="LORBITALREAL"> F  </i>
  </separator>
  <separator name="miscellaneous" >
   <i type="int" name="IDIOT">     3</i>
   <i type="int" name="ISPECIAL">     0</i>
   <i type="logical" name="LMUSIC"> F  </i>
   <v name="POMASS">     54.93800000     16.00000000</v>
   <v name="DARWINR">      0.00000000      0.00000000</v>
   <v name="DARWINV">      1.00000000      1.00000000</v>
   <i type="logical" name="LCORR"> T  </i>
  </separator>
  <i type="logical" name="GGA_COMPAT"> T  </i>
  <i type="logical" name="LBERRY"> F  </i>
  <i type="int" name="ICORELEVEL">     0</i>
  <i type="logical" name="LDAU"> F  </i>
  <i type="int" name="I_CONSTRAINED_M">     0</i>
  <separator name="electronic exchange-correlation" >
   <i type="string" name="GGA">PE</i>
   <i type="int" name="VOSKOWN">     0</i>
   <i type="logical" name="LHFCALC"> F  </i>
   <i type="string" name="PRECFOCK"></i>
   <i type="logical" name="LSYMGRAD"> F  </i>
   <i type="logical" name="LHFONE"> F  </i>
   <i type="logical" name="LRHFCALC"> F  </i>
   <i type="logical" name="LTHOMAS"> F  </i>
   <i type="logical" name="LMODELHF"> F  </i>
   <i name="ENCUT4O">     -1.00000000</i>
   <i type="int" name="EXXOEP">     0</i>
   <i type="int" name="FOURORBIT">     0</i>
   <i name="AEXX">      0.00000000</i>
   <i name="HFALPHA">      0.00000000</i>
   <i name="MCALPHA">      0.00000000</i>
   <i name="ALDAX">      1.00000000</i>
   <i name="AGGAX">      1.00000000</i>
   <i name="ALDAC">      1.00000000</i>
   <i name="AGGAC">      1.00000000</i>
   <i type="int" name="NKREDX">     1</i>
   <i type="int" name="NKREDY">     1</i>
   <i type="int" name="NKREDZ">     1</i>
   <i type="logical" name="SHIFTRED"> F  </i>
   <i type="logical" name="ODDONLY"> F  </i>
   <i type="logical" name="EVENONLY"> F  </i>
   <i type="int" name="LMAXFOCK">     0</i>
   <i type="int" name="NMAXFOCKAE">     0</i>
   <i type="logical" name="LFOCKAEDFT"> F  </i>
   <i name="HFSCREEN">      0.00000000</i>
   <i name="HFSCREENC">      0.00000000</i>
   <i type="int" name="NBANDSGWLOW">     0</i>
  </separator>
  <separator name="vdW DFT" >
   <i type="logical" name="LUSE_VDW"> F  </i>
   <i name="Zab_VDW">     -0.84910000</i>
   <i name="PARAM1">      0.12340000</i>
   <i name="PARAM2">      1.00000000</i>
   <i name="PARAM3">      0.00000000</i>
  </separator>
  <separator name="model GW" >
   <i type="int" name="MODEL_GW">     0</i>
   <i name="MODEL_EPS0">      5.99182814</i>
   <i name="MODEL_ALPHA">      1.00000000</i>
  </separator>
  <separator name="linear response parameters" >
   <i type="logical" name="LEPSILON"> F  </i>
   <i type="logical" name="LRPA"> F  </i>
   <i type="logical" name="LNABLA"> F  </i>
   <i type="logical" name="LVEL"> F  </i>
   <i type="int" name="KINTER">     0</i>
   <i name="CSHIFT">      0.10000000</i>
   <i name="OMEGAMAX">     -1.00000000</i>
   <i name="DEG_THRESHOLD">      0.00200000</i>
   <i name="RTIME">     -0.10000000</i>
   <i name="WPLASMAI">      0.00000000</i>
   <v name="DFIELD">      0.00000000      0.00000000      0.00000000</v>
   <v name="WPLASMA">      0.00000000      0.00000000      0.00000000      0.00000000      0.00000000      0.00000000      0.00000000      0.00000000      0.00000000</v>
  </separator>
  <separator name="orbital magnetization" >
   <i type="logical" name="NUCIND"> F  </i>
   <v name="MAGPOS">      0.00000000      0.00000000      0.00000000</v>
   <i type="logical" name="LNICSALL"> T  </i>
   <i type="logical" name="ORBITALMAG"> F  </i>
   <i type="logical" name="LMAGBLOCH"> F  </i>
   <i type="logical" name="LCHIMAG"> F  </i>
   <i type="logical" name="LGAUGE"> T  </i>
   <i type="int" name="MAGATOM">     0</i>
   <v name="MAGDIPOL">      0.00000000      0.00000000      0.00000000</v>
   <v name="AVECCONST">      0.00000000      0.00000000      0.00000000</v>
  </separator>
  <separator name="response functions" >
   <i type="logical" name="LADDER"> F  </i>
   <i type="logical" name="LRPAFORCE"> F  </i>
   <i type="logical" name="LFXC"> F  </i>
   <i type="logical" name="LHARTREE"> T  </i>
   <i type="int" name="IBSE">     0</i>
   <v type="int" name="KPOINT">    -1     0     0     0</v>
   <i type="logical" name="LTCTE"> F  </i>
   <i type="logical" name="LTETE"> F  </i>
   <i type="logical" name="LTRIPLET"> F  </i>
   <i type="logical" name="LFXCEPS"> F  </i>
   <i type="logical" name="LFXHEG"> F  </i>
   <i type="int" name="NATURALO">     2</i>
   <i type="logical" name="L2ORDER"> F  </i>
   <i type="logical" name="LMP2LT"> F  </i>
   <i type="logical" name="LUSEW"> F  </i>
   <i name="ENCUTGW">     -2.00000000</i>
   <i name="ENCUTGWSOFT">     -2.00000000</i>
   <i name="ENCUTLF">     -1.00000000</i>
   <i type="int" name="LMAXMP2">    -1</i>
   <i name="SCISSOR">      0.00000000</i>
   <i type="int" name="NOMEGA">     0</i>
   <i type="int" name="NOMEGAR">     0</i>
   <i type="int" name="NBANDSGW">    -1</i>
   <i type="int" name="NBANDSO">    -1</i>
   <i type="int" name="NBANDSV">    -1</i>
   <i type="int" name="NELM">   200</i>
   <i type="int" name="NELMHF">     1</i>
   <i type="int" name="DIM">     3</i>
   <i type="int" name="ANTIRES">     0</i>
   <i name="OMEGAMAX">    -30.00000000</i>
   <i name="OMEGAMIN">    -30.00000000</i>
   <i name="OMEGATL">   -200.00000000</i>
   <i type="int" name="OMEGAGRID">   140</i>
   <i name="CSHIFT">     -0.10000000</i>
   <i type="logical" name="SELFENERGY"> F  </i>
   <i type="logical" name="LSPECTRAL"> F  </i>
   <i type="logical" name="LSPECTRALGW"> F  </i>
   <i type="logical" name="LSINGLES"> F  </i>
   <i type="logical" name="LFERMIGW"> F  </i>
   <i type="logical" name="ODDONLYGW"> F  </i>
   <i type="logical" name="EVENONLYGW"> F  </i>
   <i type="int" name="NKREDLFX">     1</i>
   <i type="int" name="NKREDLFY">     1</i>
   <i type="int" name="NKREDLFZ">     1</i>
   <i type="int" name="MAXMEM">  2800</i>
   <i type="int" name="TELESCOPE">     0</i>
   <i type="int" name="TAUPAR">     1</i>
   <i type="int" name="OMEGAPAR">    -1</i>
   <i name="LAMBDA">      1.00000000</i>
  </separator>
  <separator name="External order field" >
   <i name="OFIELD_KAPPA">      0.00000000</i>
   <v name="OFIELD_K">      0.00000000      0.00000000      0.00000000</v>
   <i name="OFIELD_Q6_NEAR">      0.00000000</i>
   <i name="OFIELD_Q6_FAR">      0.00000000</i>
   <i name="OFIELD_A">      0.00000000</i>
  </separator>
 </parameters>
 <atominfo>
  <atoms>      12 </atoms>
  <types>       2 </types>
  <array name="atoms" >
   <dimension dim="1">ion</dimension>
   <field type="string">element</field>
   <field type="int">atomtype</field>
   <set>
    <rc><c>Mn</c><c>   1</c></rc>
    <rc><c>Mn</c><c>   1</c></rc>
    <rc><c>Mn</c><c>   1</c></rc>
    <rc><c>Mn</c><c>   1</c></rc>
    <rc><c>O </c><c>   2</c></rc>
    <rc><c>O </c><c>   2</c></rc>
    <rc><c>O </c><c>   2</c></rc>
    <rc><c>O </c><c>   2</c></rc>
    <rc><c>O </c><c>   2</c></rc>
    <rc><c>O </c><c>   2</c></rc>
    <rc><c>O </c><c>   2</c></rc>
    <rc><c>O </c><c>   2</c></rc>
   </set>
  </array>
  <array name="atomtypes" >
   <dimension dim="1">type</dimension>
   <field type="int">atomspertype</field>
   <field type="string">element</field>
   <field>mass</field>
   <field>valence</field>
   <field type="string">pseudopotential</field>
   <set>
    <rc><c>   4</c><c>Mn</c><c>     54.93800000</c><c>     13.00000000</c><c>  PAW_PBE Mn_pv 02Aug2007               </c></rc>
    <rc><c>   8</c><c>O </c><c>     16.00000000</c><c>      6.00000000</c><c>  PAW_PBE O 08Apr2002                   </c></rc>
   </set>
  </array>
 </atominfo>
 <structure name="initialpos" >
  <crystal>
   <varray name="basis" >
    <v>       2.85861028       0.00000044      -0.00000073 </v>
    <v>      -0.00000066       4.56899237       0.00000041 </v>
    <v>      -0.00000067      -0.00000453       9.17516663 </v>
   </varray>
   <i name="volume">    119.83656289 </i>
   <varray name="rec_basis" >
    <v>       0.34982033       0.00000005       0.00000003 </v>
    <v>      -0.00000003       0.21886664       0.00000011 </v>
    <v>       0.00000003      -0.00000001       0.10898985 </v>
   </varray>
  </crystal>
  <varray name="positions" >
   <v>       0.25000216       0.03706890       0.86559611 </v>
   <v>       0.75000165       0.96293100       0.13440384 </v>
   <v>       0.75000173       0.53706856       0.63440363 </v>
   <v>       0.25000265       0.46293133       0.36559631 </v>
   <v>       0.24999993       0.71585118       0.53024146 </v>
   <v>       0.74999881       0.21585044       0.96975878 </v>
   <v>       0.24999890       0.78415010       0.03024147 </v>
   <v>       0.74999996       0.28415009       0.46975854 </v>
   <v>       0.24999926       0.15701588       0.22600744 </v>
   <v>       0.24999818       0.34298455       0.72600676 </v>
   <v>       0.74999819       0.65701603       0.27399346 </v>
   <v>       0.74999860       0.84298295       0.77399320 </v>
  </varray>
 </structure>
 <calculation>
  <scstep>
   <time name="total">   64.65   64.90</time>
   <energy>
    <i name="alphaZ">    464.22372821 </i>
    <i name="ewald">  -7592.91167461 </i>
    <i name="hartreedc">  -3525.94754105 </i>
    <i name="XCdc">    593.05529297 </i>
    <i name="pawpsdc">  13028.88974451 </i>
    <i name="pawaedc"> -13301.31636465 </i>
    <i name="eentropy">     -0.00000000 </i>
    <i name="bandstr">  -1356.60272723 </i>
    <i name="atom">  11559.90638050 </i>
    <i name="e_fr_energy">   -130.70316135 </i>
    <i name="e_wo_entrp">   -130.70316135 </i>
    <i name="e_0_energy">   -130.70316135 </i>
   </energy>
  </scstep>
  <scstep>
   <time name="total">   73.64   73.90</time>
   <energy>
    <i name="e_fr_energy">   -130.70316851 </i>
    <i name="e_wo_entrp">   -130.70316851 </i>
    <i name="e_0_energy">   -130.70316851 </i>
   </energy>
  </scstep>
  <scstep>
   <time name="total">   87.98   90.20</time>
   <energy>
    <i name="e_fr_energy">   -130.70317122 </i>
    <i name="e_wo_entrp">   -130.70317122 </i>
    <i name="e_0_energy">   -130.70317122 </i>
   </energy>
  </scstep>
  <scstep>
   <time name="total">   70.29   70.92</time>
   <energy>
    <i name="alphaZ">    464.22372821 </i>
    <i name="ewald">  -7592.91167461 </i>
    <i name="hartreedc">  -3525.94190673 </i>
    <i name="XCdc">    593.05437968 </i>
    <i name="pawpsdc">  13029.32460904 </i>
    <i name="pawaedc"> -13301.75054665 </i>
    <i name="eentropy">     -0.00000000 </i>
    <i name="bandstr">  -1356.60814138 </i>
    <i name="atom">  11559.90638050 </i>
    <i name="e_fr_energy">   -130.70317194 </i>
    <i name="e_wo_entrp">   -130.70317194 </i>
    <i name="e_0_energy">   -130.70317194 </i>
   </energy>
  </scstep>
  <structure>
   <crystal>
    <varray name="basis" >
     <v>       2.85861028       0.00000044      -0.00000073 </v>
     <v>      -0.00000066       4.56899237       0.00000041 </v>
     <v>      -0.00000067      -0.00000453       9.17516663 </v>
    </varray>
    <i name="volume">    119.83656289 </i>
    <varray name="rec_basis" >
     <v>       0.34982033       0.00000005       0.00000003 </v>
     <v>      -0.00000003       0.21886664       0.00000011 </v>
     <v>       0.00000003      -0.00000001       0.10898985 </v>
    </varray>
   </crystal>
   <varray name="positions" >
    <v>       0.25000216       0.03706890       0.86559611 </v>
    <v>       0.75000165       0.96293100       0.13440384 </v>
    <v>       0.75000173       0.53706856       0.63440363 </v>
    <v>       0.25000265       0.46293133       0.36559631 </v>
    <v>       0.24999993       0.71585118       0.53024146 </v>
    <v>       0.74999881       0.21585044       0.96975878 </v>
    <v>       0.24999890       0.78415010       0.03024147 </v>
    <v>       0.74999996       0.28415009       0.46975854 </v>
    <v>       0.24999926       0.15701588       0.22600744 </v>
    <v>       0.24999818       0.34298455       0.72600676 </v>
    <v>       0.74999819       0.65701603       0.27399346 </v>
    <v>       0.74999860       0.84298295       0.77399320 </v>
   </varray>
  </structure>
  <varray name="forces" >
   <v>       0.00000137       0.03124489       0.00756121 </v>
   <v>       0.00004077      -0.03121142      -0.00751601 </v>
   <v>       0.00003812       0.03131509      -0.00758295 </v>
   <v>      -0.00000351      -0.03122739       0.00757903 </v>
   <v>      -0.00004005      -0.01851006      -0.01035041 </v>
   <v>       0.00000407      -0.01846966       0.01032411 </v>
   <v>      -0.00000483       0.01843433      -0.01036016 </v>
   <v>      -0.00002783       0.01842951       0.01036640 </v>
   <v>      -0.00004008       0.00452682      -0.00078653 </v>
   <v>       0.00001418      -0.00463726      -0.00069058 </v>
   <v>       0.00002947       0.00459221       0.00067998 </v>
   <v>      -0.00001167      -0.00448706       0.00077590 </v>
  </varray>
  <varray name="stress" >
   <v>       0.29061769      -0.00012541       0.00046471 </v>
   <v>      -0.00012494      -0.47366242       0.00013563 </v>
   <v>       0.00046410       0.00013671       2.05233413 </v>
  </varray>
  <energy>
   <i name="e_fr_energy">   -130.70317194 </i>
   <i name="e_wo_entrp">   -130.70317194 </i>
   <i name="e_0_energy">     -0.00000000 </i>
  </energy>
  <time name="totalsc">  420.89  425.46</time>
  <eigenvalues>
   <array>
    <dimension dim="1">band</dimension>
    <dimension dim="2">kpoint</dimension>
    <dimension dim="3">spin</dimension>
    <field>eigene</field>
    <field>occ</field>
    <set>
     <set comment="spin 1">
      <set comment="kpoint 1">
       <r>  -48.8652    1.0000 </r>
       <r>  -48.8536    1.0000 </r>
       <r>  -48.8368    1.0000 </r>
       <r>  -48.8331    1.0000 </r>
       <r>  -48.8201    1.0000 </r>
       <r>  -48.8164    1.0000 </r>
       <r>  -48.8005    1.0000 </r>
       <r>  -48.7967    1.0000 </r>
       <r>  -48.7849    1.0000 </r>
       <r>  -48.7769    1.0000 </r>
       <r>  -48.7751    1.0000 </r>
       <r>  -48.7710    1.0000 </r>
       <r>  -16.8112    1.0000 </r>
       <r>  -16.1554    1.0000 </r>
       <r>  -15.9260    1.0000 </r>
       <r>  -15.1140    1.0000 </r>
       <r>  -14.8285    1.0000 </r>
       <r>  -14.7741    1.0000 </r>
       <r>  -14.6745    1.0000 </r>
       <r>  -14.6220    1.0000 </r>
       <r>   -3.7447    1.0000 </r>
       <r>   -3.1476    1.0000 </r>
       <r>   -3.0211    1.0000 </r>
       <r>   -2.8486    1.0000 </r>
       <r>   -2.3738    1.0000 </r>
       <r>   -2.0552    1.0000 </r>
       <r>   -2.0115    1.0000 </r>
       <r>   -1.9070    1.0000 </r>
       <r>   -1.8726    1.0000 </r>
       <r>   -1.6842    1.0000 </r>
       <r>   -1.5130    1.0000 </r>
       <r>   -0.8318    1.0000 </r>
       <r>   -0.7475    1.0000 </r>
       <r>   -0.3198    1.0000 </r>
       <r>    0.3112    1.0000 </r>
       <r>    0.3174    1.0000 </r>
       <r>    0.3889    1.0000 </r>
       <r>    0.4165    1.0000 </r>
       <r>    0.5540    1.0000 </r>
       <r>    0.7491    1.0000 </r>
       <r>    0.8995    1.0000 </r>
       <r>    1.0146    1.0000 </r>
       <r>    1.0197    1.0000 </r>
       <r>    1.8428    1.0000 </r>
       <r>    1.9045    1.0000 </r>
       <r>    2.1967    1.0000 </r>
       <r>    2.3191    1.0000 </r>
       <r>    2.3429    1.0000 </r>
       <r>    2.3768    1.0000 </r>
       <r>    2.4883    1.0000 </r>
       <r>    2.4962    1.0000 </r>
       <r>    2.6392    1.0000 </r>
       <r>    3.0880    1.0000 </r>
       <r>    3.1596    1.0000 </r>
       <r>    3.2543    1.0000 </r>
       <r>    3.4176    1.0000 </r>
       <r>    5.1739    0.0000 </r>
       <r>    5.6136    0.0000 </r>
       <r>    6.7025    0.0000 </r>
       <r>    6.8128    0.0000 </r>
       <r>    6.8178    0.0000 </r>
       <r>    6.9448    0.0000 </r>
       <r>    6.9453    0.0000 </r>
       <r>    7.4319    0.0000 </r>
       <r>   11.9750    0.0000 </r>
       <r>   14.0265    0.0000 </r>
       <r>   14.6899    0.0000 </r>
       <r>   15.5729    0.0000 </r>
       <r>   15.9411    0.0000 </r>
       <r>   17.1663    0.0000 </r>
       <r>   17.3862    0.0000 </r>
       <r>   18.2879    0.0000 </r>
      </set>
      <set comment="kpoint 2">
       <r>  -48.8630    1.0000 </r>
       <r>  -48.8545    1.0000 </r>
       <r>  -48.8472    1.0000 </r>
       <r>  -48.8446    1.0000 </r>
       <r>  -48.8272    1.0000 </r>
       <r>  -48.8262    1.0000 </r>
       <r>  -48.7985    1.0000 </r>
       <r>  -48.7950    1.0000 </r>
       <r>  -48.7836    1.0000 </r>
       <r>  -48.7762    1.0000 </r>
       <r>  -48.7756    1.0000 </r>
       <r>  -48.7704    1.0000 </r>
       <r>  -16.7143    1.0000 </r>
       <r>  -16.0827    1.0000 </r>
       <r>  -15.8541    1.0000 </r>
       <r>  -15.0805    1.0000 </r>
       <r>  -14.8398    1.0000 </r>
       <r>  -14.7856    1.0000 </r>
       <r>  -14.6994    1.0000 </r>
       <r>  -14.6445    1.0000 </r>
       <r>   -3.6022    1.0000 </r>
       <r>   -3.0261    1.0000 </r>
       <r>   -2.9112    1.0000 </r>
       <r>   -2.7404    1.0000 </r>
       <r>   -2.2934    1.0000 </r>
       <r>   -2.2599    1.0000 </r>
       <r>   -2.1635    1.0000 </r>
       <r>   -1.9801    1.0000 </r>
       <r>   -1.6339    1.0000 </r>
       <r>   -1.5854    1.0000 </r>
       <r>   -1.5454    1.0000 </r>
       <r>   -0.8254    1.0000 </r>
       <r>   -0.7578    1.0000 </r>
       <r>   -0.4589    1.0000 </r>
       <r>    0.0149    1.0000 </r>
       <r>    0.0886    1.0000 </r>
       <r>    0.4263    1.0000 </r>
       <r>    0.5533    1.0000 </r>
       <r>    0.6039    1.0000 </r>
       <r>    0.6302    1.0000 </r>
       <r>    0.7356    1.0000 </r>
       <r>    0.8593    1.0000 </r>
       <r>    0.9482    1.0000 </r>
       <r>    1.7579    1.0000 </r>
       <r>    1.7786    1.0000 </r>
       <r>    2.0966    1.0000 </r>
       <r>    2.2172    1.0000 </r>
       <r>    2.3982    1.0000 </r>
       <r>    2.4935    1.0000 </r>
       <r>    2.5430    1.0000 </r>
       <r>    2.6351    1.0000 </r>
       <r>    2.6581    1.0000 </r>
       <r>    3.1051    1.0000 </r>
       <r>    3.2094    1.0000 </r>
       <r>    3.3013    1.0000 </r>
       <r>    3.4306    1.0000 </r>
       <r>    5.2431    0.0000 </r>
       <r>    5.6573    0.0000 </r>
       <r>    6.4822    0.0000 </r>
       <r>    6.5519    0.0000 </r>
       <r>    6.6795    0.0000 </r>
       <r>    6.7240    0.0000 </r>
       <r>    6.8846    0.0000 </r>
       <r>    7.3745    0.0000 </r>
       <r>   12.3301    0.0000 </r>
       <r>   14.3251    0.0000 </r>
       <r>   14.9444    0.0000 </r>
       <r>   15.9855    0.0000 </r>
       <r>   16.3584    0.0000 </r>
       <r>   17.4694    0.0000 </r>
       <r>   17.7197    0.0000 </r>
       <r>   18.3782    0.0000 </r>
      </set>
      <set comment="kpoint 3">
       <r>  -48.8738    1.0000 </r>
       <r>  -48.8730    1.0000 </r>
       <r>  -48.8706    1.0000 </r>
       <r>  -48.8665    1.0000 </r>
       <r>  -48.8420    1.0000 </r>
       <r>  -48.8316    1.0000 </r>
       <r>  -48.7935    1.0000 </r>
       <r>  -48.7923    1.0000 </r>
       <r>  -48.7801    1.0000 </r>
       <r>  -48.7776    1.0000 </r>
       <r>  -48.7749    1.0000 </r>
       <r>  -48.7690    1.0000 </r>
       <r>  -16.4420    1.0000 </r>
       <r>  -15.8854    1.0000 </r>
       <r>  -15.6600    1.0000 </r>
       <r>  -15.0049    1.0000 </r>
       <r>  -14.8682    1.0000 </r>
       <r>  -14.8156    1.0000 </r>
       <r>  -14.7689    1.0000 </r>
       <r>  -14.7056    1.0000 </r>
       <r>   -3.2082    1.0000 </r>
       <r>   -2.7018    1.0000 </r>
       <r>   -2.6198    1.0000 </r>
       <r>   -2.4950    1.0000 </r>
       <r>   -2.4315    1.0000 </r>
       <r>   -2.3747    1.0000 </r>
       <r>   -2.1048    1.0000 </r>
       <r>   -2.0947    1.0000 </r>
       <r>   -1.6797    1.0000 </r>
       <r>   -1.4011    1.0000 </r>
       <r>   -1.2761    1.0000 </r>
       <r>   -1.2446    1.0000 </r>
       <r>   -1.0456    1.0000 </r>
       <r>   -0.6083    1.0000 </r>
       <r>   -0.1757    1.0000 </r>
       <r>   -0.0993    1.0000 </r>
       <r>    0.0050    1.0000 </r>
       <r>    0.2453    1.0000 </r>
       <r>    0.4169    1.0000 </r>
       <r>    0.6668    1.0000 </r>
       <r>    0.7180    1.0000 </r>
       <r>    0.7892    1.0000 </r>
       <r>    0.8660    1.0000 </r>
       <r>    1.5021    1.0000 </r>
       <r>    1.8730    1.0000 </r>
       <r>    1.8945    1.0000 </r>
       <r>    2.1413    1.0000 </r>
       <r>    2.2516    1.0000 </r>
       <r>    2.4509    1.0000 </r>
       <r>    2.6475    1.0000 </r>
       <r>    2.6785    1.0000 </r>
       <r>    2.7582    1.0000 </r>
       <r>    3.0551    1.0000 </r>
       <r>    3.2807    1.0000 </r>
       <r>    3.4141    1.0000 </r>
       <r>    3.4161    1.0000 </r>
       <r>    5.3923    0.0000 </r>
       <r>    5.4887    0.0000 </r>
       <r>    5.9429    0.0000 </r>
       <r>    6.1674    0.0000 </r>
       <r>    6.3220    0.0000 </r>
       <r>    6.5344    0.0000 </r>
       <r>    6.9109    0.0000 </r>
       <r>    7.1453    0.0000 </r>
       <r>   13.2546    0.0000 </r>
       <r>   15.0366    0.0000 </r>
       <r>   15.5485    0.0000 </r>
       <r>   17.0098    0.0000 </r>
       <r>   17.3816    0.0000 </r>
       <r>   18.2518    0.0000 </r>
       <r>   18.5196    0.0000 </r>
       <r>   18.5512    0.0000 </r>
      </set>
      <set comment="kpoint 4">
       <r>  -48.9065    1.0000 </r>
       <r>  -48.9057    1.0000 </r>
       <r>  -48.9025    1.0000 </r>
       <r>  -48.8965    1.0000 </r>
       <r>  -48.8340    1.0000 </r>
       <r>  -48.8236    1.0000 </r>
       <r>  -48.7915    1.0000 </r>
       <r>  -48.7889    1.0000 </r>
       <r>  -48.7801    1.0000 </r>
       <r>  -48.7760    1.0000 </r>
       <r>  -48.7734    1.0000 </r>
       <r>  -48.7680    1.0000 </r>
       <r>  -16.0484    1.0000 </r>
       <r>  -15.6215    1.0000 </r>
       <r>  -15.4051    1.0000 </r>
       <r>  -14.9567    1.0000 </r>
       <r>  -14.8993    1.0000 </r>
       <r>  -14.8682    1.0000 </r>
       <r>  -14.8540    1.0000 </r>
       <r>  -14.7855    1.0000 </r>
       <r>   -2.7080    1.0000 </r>
       <r>   -2.5930    1.0000 </r>
       <r>   -2.5055    1.0000 </r>
       <r>   -2.4778    1.0000 </r>
       <r>   -2.3319    1.0000 </r>
       <r>   -2.2829    1.0000 </r>
       <r>   -2.2657    1.0000 </r>
       <r>   -2.0461    1.0000 </r>
       <r>   -1.6136    1.0000 </r>
       <r>   -1.6010    1.0000 </r>
       <r>   -1.3925    1.0000 </r>
       <r>   -0.9943    1.0000 </r>
       <r>   -0.9086    1.0000 </r>
       <r>   -0.7315    1.0000 </r>
       <r>   -0.5940    1.0000 </r>
       <r>   -0.1429    1.0000 </r>
       <r>   -0.0887    1.0000 </r>
       <r>    0.0051    1.0000 </r>
       <r>    0.2103    1.0000 </r>
       <r>    0.5841    1.0000 </r>
       <r>    0.5965    1.0000 </r>
       <r>    0.8537    1.0000 </r>
       <r>    0.9970    1.0000 </r>
       <r>    1.1591    1.0000 </r>
       <r>    1.6458    1.0000 </r>
       <r>    1.8752    1.0000 </r>
       <r>    1.9023    1.0000 </r>
       <r>    2.0432    1.0000 </r>
       <r>    2.2909    1.0000 </r>
       <r>    2.3585    1.0000 </r>
       <r>    2.5180    1.0000 </r>
       <r>    2.7061    1.0000 </r>
       <r>    3.1437    1.0000 </r>
       <r>    3.2220    1.0000 </r>
       <r>    3.3225    1.0000 </r>
       <r>    3.4908    1.0000 </r>
       <r>    5.1933    0.0000 </r>
       <r>    5.4622    0.0000 </r>
       <r>    5.5516    0.0000 </r>
       <r>    5.7845    0.0000 </r>
       <r>    6.2013    0.0000 </r>
       <r>    6.8075    0.0000 </r>
       <r>    6.8236    0.0000 </r>
       <r>    6.9865    0.0000 </r>
       <r>   14.4699    0.0000 </r>
       <r>   15.8542    0.0000 </r>
       <r>   16.2179    0.0000 </r>
       <r>   18.2326    0.0000 </r>
       <r>   18.5592    0.0000 </r>
       <r>   18.7099    0.0000 </r>
       <r>   18.9007    0.0000 </r>
       <r>   19.0652    0.0000 </r>
      </set>
      <set comment="kpoint 5">
       <r>  -48.9326    1.0000 </r>
       <r>  -48.9304    1.0000 </r>
       <r>  -48.9301    1.0000 </r>
       <r>  -48.9252    1.0000 </r>
       <r>  -48.8198    1.0000 </r>
       <r>  -48.8126    1.0000 </r>
       <r>  -48.7949    1.0000 </r>
       <r>  -48.7943    1.0000 </r>
       <r>  -48.7763    1.0000 </r>
       <r>  -48.7725    1.0000 </r>
       <r>  -48.7717    1.0000 </r>
       <r>  -48.7684    1.0000 </r>
       <r>  -15.6189    1.0000 </r>
       <r>  -15.3678    1.0000 </r>
       <r>  -15.1840    1.0000 </r>
       <r>  -15.0256    1.0000 </r>
       <r>  -14.9723    1.0000 </r>
       <r>  -14.9146    1.0000 </r>
       <r>  -14.8972    1.0000 </r>
       <r>  -14.8534    1.0000 </r>
       <r>   -3.0142    1.0000 </r>
       <r>   -2.8732    1.0000 </r>
       <r>   -2.5267    1.0000 </r>
       <r>   -2.5086    1.0000 </r>
       <r>   -2.3942    1.0000 </r>
       <r>   -2.1408    1.0000 </r>
       <r>   -1.9684    1.0000 </r>
       <r>   -1.8592    1.0000 </r>
       <r>   -1.5002    1.0000 </r>
       <r>   -1.3005    1.0000 </r>
       <r>   -1.2161    1.0000 </r>
       <r>   -1.1074    1.0000 </r>
       <r>   -0.7552    1.0000 </r>
       <r>   -0.5261    1.0000 </r>
       <r>   -0.3912    1.0000 </r>
       <r>   -0.1222    1.0000 </r>
       <r>   -0.0521    1.0000 </r>
       <r>   -0.0114    1.0000 </r>
       <r>    0.2969    1.0000 </r>
       <r>    0.3157    1.0000 </r>
       <r>    0.5001    1.0000 </r>
       <r>    0.9027    1.0000 </r>
       <r>    0.9623    1.0000 </r>
       <r>    1.0725    1.0000 </r>
       <r>    1.3780    1.0000 </r>
       <r>    1.5779    1.0000 </r>
       <r>    1.6066    1.0000 </r>
       <r>    1.6599    1.0000 </r>
       <r>    1.8856    1.0000 </r>
       <r>    1.9904    1.0000 </r>
       <r>    2.2755    1.0000 </r>
       <r>    2.3363    1.0000 </r>
       <r>    3.2276    1.0000 </r>
       <r>    3.2658    1.0000 </r>
       <r>    3.2718    1.0000 </r>
       <r>    3.4833    1.0000 </r>
       <r>    5.1396    0.0000 </r>
       <r>    5.3628    0.0000 </r>
       <r>    5.4784    0.0000 </r>
       <r>    5.6067    0.0000 </r>
       <r>    6.3401    0.0000 </r>
       <r>    6.5922    0.0000 </r>
       <r>    7.0579    0.0000 </r>
       <r>    7.1069    0.0000 </r>
       <r>   15.7548    0.0000 </r>
       <r>   16.5557    0.0000 </r>
       <r>   16.7423    0.0000 </r>
       <r>   18.0779    0.0000 </r>
       <r>   18.5862    0.0000 </r>
       <r>   18.7048    0.0000 </r>
       <r>   18.9948    0.0000 </r>
       <r>   19.4647    0.0000 </r>
      </set>
      <set comment="kpoint 6">
       <r>  -48.9416    1.0000 </r>
       <r>  -48.9416    1.0000 </r>
       <r>  -48.9380    1.0000 </r>
       <r>  -48.9380    1.0000 </r>
       <r>  -48.8057    1.0000 </r>
       <r>  -48.8057    1.0000 </r>
       <r>  -48.8023    1.0000 </r>
       <r>  -48.8023    1.0000 </r>
       <r>  -48.7713    1.0000 </r>
       <r>  -48.7713    1.0000 </r>
       <r>  -48.7710    1.0000 </r>
       <r>  -48.7710    1.0000 </r>
       <r>  -15.2529    1.0000 </r>
       <r>  -15.2529    1.0000 </r>
       <r>  -15.1832    1.0000 </r>
       <r>  -15.1832    1.0000 </r>
       <r>  -14.9624    1.0000 </r>
       <r>  -14.9624    1.0000 </r>
       <r>  -14.8994    1.0000 </r>
       <r>  -14.8994    1.0000 </r>
       <r>   -3.1467    1.0000 </r>
       <r>   -3.1467    1.0000 </r>
       <r>   -2.5045    1.0000 </r>
       <r>   -2.5045    1.0000 </r>
       <r>   -2.3125    1.0000 </r>
       <r>   -2.3125    1.0000 </r>
       <r>   -1.7777    1.0000 </r>
       <r>   -1.7777    1.0000 </r>
       <r>   -1.3194    1.0000 </r>
       <r>   -1.3194    1.0000 </r>
       <r>   -1.0023    1.0000 </r>
       <r>   -1.0023    1.0000 </r>
       <r>   -0.4128    1.0000 </r>
       <r>   -0.4128    1.0000 </r>
       <r>   -0.3789    1.0000 </r>
       <r>   -0.3789    1.0000 </r>
       <r>   -0.1278    1.0000 </r>
       <r>   -0.1278    1.0000 </r>
       <r>    0.3979    1.0000 </r>
       <r>    0.3980    1.0000 </r>
       <r>    0.8981    1.0000 </r>
       <r>    0.8981    1.0000 </r>
       <r>    1.0883    1.0000 </r>
       <r>    1.0883    1.0000 </r>
       <r>    1.3378    1.0000 </r>
       <r>    1.3378    1.0000 </r>
       <r>    1.4054    1.0000 </r>
       <r>    1.4054    1.0000 </r>
       <r>    1.4856    1.0000 </r>
       <r>    1.4856    1.0000 </r>
       <r>    2.1783    1.0000 </r>
       <r>    2.1783    1.0000 </r>
       <r>    3.2536    1.0000 </r>
       <r>    3.2536    1.0000 </r>
       <r>    3.4002    1.0000 </r>
       <r>    3.4002    1.0000 </r>
       <r>    5.2371    0.0000 </r>
       <r>    5.2371    0.0000 </r>
       <r>    5.5233    0.0000 </r>
       <r>    5.5233    0.0000 </r>
       <r>    6.4741    0.0000 </r>
       <r>    6.4741    0.0000 </r>
       <r>    7.1621    0.0000 </r>
       <r>    7.1621    0.0000 </r>
       <r>   16.9221    0.0000 </r>
       <r>   16.9221    0.0000 </r>
       <r>   16.9865    0.0000 </r>
       <r>   16.9865    0.0000 </r>
       <r>   18.2994    0.0000 </r>
       <r>   18.2994    0.0000 </r>
       <r>   19.4582    0.0000 </r>
       <r>   19.4582    0.0000 </r>
      </set>
      <set comment="kpoint 7">
       <r>  -48.8647    1.0000 </r>
       <r>  -48.8543    1.0000 </r>
       <r>  -48.8366    1.0000 </r>
       <r>  -48.8332    1.0000 </r>
       <r>  -48.8199    1.0000 </r>
       <r>  -48.8166    1.0000 </r>
       <r>  -48.8000    1.0000 </r>
       <r>  -48.7967    1.0000 </r>
       <r>  -48.7850    1.0000 </r>
       <r>  -48.7776    1.0000 </r>
       <r>  -48.7746    1.0000 </r>
       <r>  -48.7709    1.0000 </r>
       <r>  -16.7631    1.0000 </r>
       <r>  -16.1606    1.0000 </r>
       <r>  -15.8877    1.0000 </r>
       <r>  -15.1540    1.0000 </r>
       <r>  -14.8281    1.0000 </r>
       <r>  -14.7886    1.0000 </r>
       <r>  -14.6970    1.0000 </r>
       <r>  -14.6566    1.0000 </r>
       <r>   -3.7171    1.0000 </r>
       <r>   -3.0362    1.0000 </r>
       <r>   -3.0359    1.0000 </r>
       <r>   -2.8974    1.0000 </r>
       <r>   -2.4375    1.0000 </r>
       <r>   -2.0460    1.0000 </r>
       <r>   -1.9761    1.0000 </r>
       <r>   -1.8934    1.0000 </r>
       <r>   -1.7565    1.0000 </r>
       <r>   -1.6672    1.0000 </r>
       <r>   -1.5263    1.0000 </r>
       <r>   -0.8306    1.0000 </r>
       <r>   -0.7308    1.0000 </r>
       <r>   -0.3058    1.0000 </r>
       <r>    0.1690    1.0000 </r>
       <r>    0.2531    1.0000 </r>
       <r>    0.3205    1.0000 </r>
       <r>    0.5779    1.0000 </r>
       <r>    0.7119    1.0000 </r>
       <r>    0.7359    1.0000 </r>
       <r>    0.8423    1.0000 </r>
       <r>    1.0120    1.0000 </r>
       <r>    1.0733    1.0000 </r>
       <r>    1.8236    1.0000 </r>
       <r>    1.8941    1.0000 </r>
       <r>    2.0210    1.0000 </r>
       <r>    2.2013    1.0000 </r>
       <r>    2.3435    1.0000 </r>
       <r>    2.3866    1.0000 </r>
       <r>    2.4078    1.0000 </r>
       <r>    2.5866    1.0000 </r>
       <r>    2.6970    1.0000 </r>
       <r>    2.9856    1.0000 </r>
       <r>    3.1792    1.0000 </r>
       <r>    3.1890    1.0000 </r>
       <r>    3.5124    1.0000 </r>
       <r>    5.1782    0.0000 </r>
       <r>    5.7088    0.0000 </r>
       <r>    6.6865    0.0000 </r>
       <r>    6.6886    0.0000 </r>
       <r>    6.8256    0.0000 </r>
       <r>    6.9241    0.0000 </r>
       <r>    6.9591    0.0000 </r>
       <r>    7.3317    0.0000 </r>
       <r>   12.2523    0.0000 </r>
       <r>   14.1942    0.0000 </r>
       <r>   14.8530    0.0000 </r>
       <r>   15.5526    0.0000 </r>
       <r>   16.0499    0.0000 </r>
       <r>   17.1445    0.0000 </r>
       <r>   17.2580    0.0000 </r>
       <r>   18.4131    0.0000 </r>
      </set>
      <set comment="kpoint 8">
       <r>  -48.8626    1.0000 </r>
       <r>  -48.8549    1.0000 </r>
       <r>  -48.8471    1.0000 </r>
       <r>  -48.8448    1.0000 </r>
       <r>  -48.8273    1.0000 </r>
       <r>  -48.8263    1.0000 </r>
       <r>  -48.7980    1.0000 </r>
       <r>  -48.7951    1.0000 </r>
       <r>  -48.7837    1.0000 </r>
       <r>  -48.7768    1.0000 </r>
       <r>  -48.7750    1.0000 </r>
       <r>  -48.7704    1.0000 </r>
       <r>  -16.6675    1.0000 </r>
       <r>  -16.0871    1.0000 </r>
       <r>  -15.8171    1.0000 </r>
       <r>  -15.1171    1.0000 </r>
       <r>  -14.8399    1.0000 </r>
       <r>  -14.8001    1.0000 </r>
       <r>  -14.7205    1.0000 </r>
       <r>  -14.6786    1.0000 </r>
       <r>   -3.5760    1.0000 </r>
       <r>   -2.9331    1.0000 </r>
       <r>   -2.9244    1.0000 </r>
       <r>   -2.7867    1.0000 </r>
       <r>   -2.4245    1.0000 </r>
       <r>   -2.1751    1.0000 </r>
       <r>   -2.1302    1.0000 </r>
       <r>   -1.9544    1.0000 </r>
       <r>   -1.6644    1.0000 </r>
       <r>   -1.5382    1.0000 </r>
       <r>   -1.5031    1.0000 </r>
       <r>   -0.7685    1.0000 </r>
       <r>   -0.7025    1.0000 </r>
       <r>   -0.4931    1.0000 </r>
       <r>   -0.1280    1.0000 </r>
       <r>    0.2380    1.0000 </r>
       <r>    0.3985    1.0000 </r>
       <r>    0.4074    1.0000 </r>
       <r>    0.6170    1.0000 </r>
       <r>    0.7501    1.0000 </r>
       <r>    0.8155    1.0000 </r>
       <r>    0.8381    1.0000 </r>
       <r>    0.9340    1.0000 </r>
       <r>    1.7603    1.0000 </r>
       <r>    1.7842    1.0000 </r>
       <r>    1.9607    1.0000 </r>
       <r>    2.2016    1.0000 </r>
       <r>    2.2266    1.0000 </r>
       <r>    2.4663    1.0000 </r>
       <r>    2.5570    1.0000 </r>
       <r>    2.6024    1.0000 </r>
       <r>    2.7765    1.0000 </r>
       <r>    3.1236    1.0000 </r>
       <r>    3.1567    1.0000 </r>
       <r>    3.2314    1.0000 </r>
       <r>    3.5135    1.0000 </r>
       <r>    5.2546    0.0000 </r>
       <r>    5.7259    0.0000 </r>
       <r>    6.4396    0.0000 </r>
       <r>    6.5638    0.0000 </r>
       <r>    6.6306    0.0000 </r>
       <r>    6.7381    0.0000 </r>
       <r>    6.8393    0.0000 </r>
       <r>    7.3111    0.0000 </r>
       <r>   12.5886    0.0000 </r>
       <r>   14.4768    0.0000 </r>
       <r>   15.0915    0.0000 </r>
       <r>   15.9541    0.0000 </r>
       <r>   16.4434    0.0000 </r>
       <r>   17.4023    0.0000 </r>
       <r>   17.5601    0.0000 </r>
       <r>   18.6980    0.0000 </r>
      </set>
      <set comment="kpoint 9">
       <r>  -48.8738    1.0000 </r>
       <r>  -48.8730    1.0000 </r>
       <r>  -48.8703    1.0000 </r>
       <r>  -48.8666    1.0000 </r>
       <r>  -48.8416    1.0000 </r>
       <r>  -48.8323    1.0000 </r>
       <r>  -48.7931    1.0000 </r>
       <r>  -48.7923    1.0000 </r>
       <r>  -48.7807    1.0000 </r>
       <r>  -48.7764    1.0000 </r>
       <r>  -48.7754    1.0000 </r>
       <r>  -48.7692    1.0000 </r>
       <r>  -16.3992    1.0000 </r>
       <r>  -15.8874    1.0000 </r>
       <r>  -15.6271    1.0000 </r>
       <r>  -15.0306    1.0000 </r>
       <r>  -14.8696    1.0000 </r>
       <r>  -14.8312    1.0000 </r>
       <r>  -14.7857    1.0000 </r>
       <r>  -14.7376    1.0000 </r>
       <r>   -3.1875    1.0000 </r>
       <r>   -2.6780    1.0000 </r>
       <r>   -2.6381    1.0000 </r>
       <r>   -2.5226    1.0000 </r>
       <r>   -2.5003    1.0000 </r>
       <r>   -2.3963    1.0000 </r>
       <r>   -2.0721    1.0000 </r>
       <r>   -2.0686    1.0000 </r>
       <r>   -1.7091    1.0000 </r>
       <r>   -1.4586    1.0000 </r>
       <r>   -1.1818    1.0000 </r>
       <r>   -1.1302    1.0000 </r>
       <r>   -1.0234    1.0000 </r>
       <r>   -0.4941    1.0000 </r>
       <r>   -0.2185    1.0000 </r>
       <r>   -0.1223    1.0000 </r>
       <r>   -0.0241    1.0000 </r>
       <r>    0.2939    1.0000 </r>
       <r>    0.3424    1.0000 </r>
       <r>    0.5730    1.0000 </r>
       <r>    0.7011    1.0000 </r>
       <r>    0.8981    1.0000 </r>
       <r>    0.9017    1.0000 </r>
       <r>    1.5298    1.0000 </r>
       <r>    1.7281    1.0000 </r>
       <r>    1.8954    1.0000 </r>
       <r>    2.1693    1.0000 </r>
       <r>    2.3231    1.0000 </r>
       <r>    2.4445    1.0000 </r>
       <r>    2.4738    1.0000 </r>
       <r>    2.7023    1.0000 </r>
       <r>    2.8429    1.0000 </r>
       <r>    3.0077    1.0000 </r>
       <r>    3.2790    1.0000 </r>
       <r>    3.3164    1.0000 </r>
       <r>    3.4803    1.0000 </r>
       <r>    5.4104    0.0000 </r>
       <r>    5.5579    0.0000 </r>
       <r>    5.8726    0.0000 </r>
       <r>    6.1654    0.0000 </r>
       <r>    6.3038    0.0000 </r>
       <r>    6.5917    0.0000 </r>
       <r>    6.8498    0.0000 </r>
       <r>    7.1668    0.0000 </r>
       <r>   13.4548    0.0000 </r>
       <r>   15.1461    0.0000 </r>
       <r>   15.6466    0.0000 </r>
       <r>   16.9517    0.0000 </r>
       <r>   17.4165    0.0000 </r>
       <r>   17.9191    0.0000 </r>
       <r>   18.3117    0.0000 </r>
       <r>   19.0157    0.0000 </r>
      </set>
      <set comment="kpoint 10">
       <r>  -48.9064    1.0000 </r>
       <r>  -48.9058    1.0000 </r>
       <r>  -48.9021    1.0000 </r>
       <r>  -48.8968    1.0000 </r>
       <r>  -48.8336    1.0000 </r>
       <r>  -48.8242    1.0000 </r>
       <r>  -48.7914    1.0000 </r>
       <r>  -48.7891    1.0000 </r>
       <r>  -48.7800    1.0000 </r>
       <r>  -48.7753    1.0000 </r>
       <r>  -48.7738    1.0000 </r>
       <r>  -48.7683    1.0000 </r>
       <r>  -16.0132    1.0000 </r>
       <r>  -15.6203    1.0000 </r>
       <r>  -15.3794    1.0000 </r>
       <r>  -14.9625    1.0000 </r>
       <r>  -14.9053    1.0000 </r>
       <r>  -14.8762    1.0000 </r>
       <r>  -14.8746    1.0000 </r>
       <r>  -14.8129    1.0000 </r>
       <r>   -2.7079    1.0000 </r>
       <r>   -2.6642    1.0000 </r>
       <r>   -2.5741    1.0000 </r>
       <r>   -2.5303    1.0000 </r>
       <r>   -2.3727    1.0000 </r>
       <r>   -2.2758    1.0000 </r>
       <r>   -2.2487    1.0000 </r>
       <r>   -2.0192    1.0000 </r>
       <r>   -1.6211    1.0000 </r>
       <r>   -1.4808    1.0000 </r>
       <r>   -1.3443    1.0000 </r>
       <r>   -1.0781    1.0000 </r>
       <r>   -0.8413    1.0000 </r>
       <r>   -0.7604    1.0000 </r>
       <r>   -0.5031    1.0000 </r>
       <r>   -0.1528    1.0000 </r>
       <r>   -0.0133    1.0000 </r>
       <r>    0.0182    1.0000 </r>
       <r>    0.1709    1.0000 </r>
       <r>    0.4560    1.0000 </r>
       <r>    0.5503    1.0000 </r>
       <r>    0.9435    1.0000 </r>
       <r>    1.0052    1.0000 </r>
       <r>    1.2795    1.0000 </r>
       <r>    1.5092    1.0000 </r>
       <r>    1.8858    1.0000 </r>
       <r>    2.0183    1.0000 </r>
       <r>    2.1145    1.0000 </r>
       <r>    2.2537    1.0000 </r>
       <r>    2.3613    1.0000 </r>
       <r>    2.5096    1.0000 </r>
       <r>    2.6983    1.0000 </r>
       <r>    3.0474    1.0000 </r>
       <r>    3.2732    1.0000 </r>
       <r>    3.2762    1.0000 </r>
       <r>    3.4435    1.0000 </r>
       <r>    5.2710    0.0000 </r>
       <r>    5.4477    0.0000 </r>
       <r>    5.5374    0.0000 </r>
       <r>    5.8142    0.0000 </r>
       <r>    6.1623    0.0000 </r>
       <r>    6.8347    0.0000 </r>
       <r>    6.8423    0.0000 </r>
       <r>    7.0243    0.0000 </r>
       <r>   14.5732    0.0000 </r>
       <r>   15.9063    0.0000 </r>
       <r>   16.2371    0.0000 </r>
       <r>   18.0249    0.0000 </r>
       <r>   18.3285    0.0000 </r>
       <r>   18.4680    0.0000 </r>
       <r>   18.9396    0.0000 </r>
       <r>   18.9726    0.0000 </r>
      </set>
      <set comment="kpoint 11">
       <r>  -48.9325    1.0000 </r>
       <r>  -48.9307    1.0000 </r>
       <r>  -48.9297    1.0000 </r>
       <r>  -48.9255    1.0000 </r>
       <r>  -48.8195    1.0000 </r>
       <r>  -48.8130    1.0000 </r>
       <r>  -48.7949    1.0000 </r>
       <r>  -48.7943    1.0000 </r>
       <r>  -48.7760    1.0000 </r>
       <r>  -48.7723    1.0000 </r>
       <r>  -48.7718    1.0000 </r>
       <r>  -48.7686    1.0000 </r>
       <r>  -15.5952    1.0000 </r>
       <r>  -15.3647    1.0000 </r>
       <r>  -15.1698    1.0000 </r>
       <r>  -15.0250    1.0000 </r>
       <r>  -14.9792    1.0000 </r>
       <r>  -14.9163    1.0000 </r>
       <r>  -14.9082    1.0000 </r>
       <r>  -14.8707    1.0000 </r>
       <r>   -3.0442    1.0000 </r>
       <r>   -2.9282    1.0000 </r>
       <r>   -2.5702    1.0000 </r>
       <r>   -2.5653    1.0000 </r>
       <r>   -2.3863    1.0000 </r>
       <r>   -2.1537    1.0000 </r>
       <r>   -1.9664    1.0000 </r>
       <r>   -1.8483    1.0000 </r>
       <r>   -1.5083    1.0000 </r>
       <r>   -1.4712    1.0000 </r>
       <r>   -1.1209    1.0000 </r>
       <r>   -1.0153    1.0000 </r>
       <r>   -0.8176    1.0000 </r>
       <r>   -0.4847    1.0000 </r>
       <r>   -0.3685    1.0000 </r>
       <r>   -0.1588    1.0000 </r>
       <r>   -0.0925    1.0000 </r>
       <r>    0.1241    1.0000 </r>
       <r>    0.2577    1.0000 </r>
       <r>    0.3514    1.0000 </r>
       <r>    0.5259    1.0000 </r>
       <r>    0.9142    1.0000 </r>
       <r>    0.9721    1.0000 </r>
       <r>    1.1847    1.0000 </r>
       <r>    1.3482    1.0000 </r>
       <r>    1.5631    1.0000 </r>
       <r>    1.6582    1.0000 </r>
       <r>    1.7053    1.0000 </r>
       <r>    1.9140    1.0000 </r>
       <r>    1.9934    1.0000 </r>
       <r>    2.2934    1.0000 </r>
       <r>    2.3278    1.0000 </r>
       <r>    3.1793    1.0000 </r>
       <r>    3.1991    1.0000 </r>
       <r>    3.3065    1.0000 </r>
       <r>    3.4260    1.0000 </r>
       <r>    5.2030    0.0000 </r>
       <r>    5.2755    0.0000 </r>
       <r>    5.5464    0.0000 </r>
       <r>    5.6612    0.0000 </r>
       <r>    6.3393    0.0000 </r>
       <r>    6.6812    0.0000 </r>
       <r>    7.0648    0.0000 </r>
       <r>    7.0974    0.0000 </r>
       <r>   15.7053    0.0000 </r>
       <r>   16.5857    0.0000 </r>
       <r>   16.6569    0.0000 </r>
       <r>   17.8923    0.0000 </r>
       <r>   18.2726    0.0000 </r>
       <r>   18.2950    0.0000 </r>
       <r>   19.1501    0.0000 </r>
       <r>   19.4003    0.0000 </r>
      </set>
      <set comment="kpoint 12">
       <r>  -48.9415    1.0000 </r>
       <r>  -48.9415    1.0000 </r>
       <r>  -48.9382    1.0000 </r>
       <r>  -48.9382    1.0000 </r>
       <r>  -48.8056    1.0000 </r>
       <r>  -48.8056    1.0000 </r>
       <r>  -48.8025    1.0000 </r>
       <r>  -48.8025    1.0000 </r>
       <r>  -48.7713    1.0000 </r>
       <r>  -48.7713    1.0000 </r>
       <r>  -48.7709    1.0000 </r>
       <r>  -48.7709    1.0000 </r>
       <r>  -15.2435    1.0000 </r>
       <r>  -15.2435    1.0000 </r>
       <r>  -15.1809    1.0000 </r>
       <r>  -15.1809    1.0000 </r>
       <r>  -14.9623    1.0000 </r>
       <r>  -14.9623    1.0000 </r>
       <r>  -14.9064    1.0000 </r>
       <r>  -14.9064    1.0000 </r>
       <r>   -3.1769    1.0000 </r>
       <r>   -3.1769    1.0000 </r>
       <r>   -2.5519    1.0000 </r>
       <r>   -2.5519    1.0000 </r>
       <r>   -2.3312    1.0000 </r>
       <r>   -2.3312    1.0000 </r>
       <r>   -1.7624    1.0000 </r>
       <r>   -1.7624    1.0000 </r>
       <r>   -1.4373    1.0000 </r>
       <r>   -1.4373    1.0000 </r>
       <r>   -0.9671    1.0000 </r>
       <r>   -0.9671    1.0000 </r>
       <r>   -0.4124    1.0000 </r>
       <r>   -0.4124    1.0000 </r>
       <r>   -0.3205    1.0000 </r>
       <r>   -0.3205    1.0000 </r>
       <r>   -0.1612    1.0000 </r>
       <r>   -0.1612    1.0000 </r>
       <r>    0.5206    1.0000 </r>
       <r>    0.5206    1.0000 </r>
       <r>    0.8644    1.0000 </r>
       <r>    0.8644    1.0000 </r>
       <r>    1.1478    1.0000 </r>
       <r>    1.1478    1.0000 </r>
       <r>    1.3383    1.0000 </r>
       <r>    1.3383    1.0000 </r>
       <r>    1.4200    1.0000 </r>
       <r>    1.4200    1.0000 </r>
       <r>    1.5218    1.0000 </r>
       <r>    1.5218    1.0000 </r>
       <r>    2.1871    1.0000 </r>
       <r>    2.1871    1.0000 </r>
       <r>    3.2272    1.0000 </r>
       <r>    3.2272    1.0000 </r>
       <r>    3.3647    1.0000 </r>
       <r>    3.3647    1.0000 </r>
       <r>    5.2195    0.0000 </r>
       <r>    5.2195    0.0000 </r>
       <r>    5.5956    0.0000 </r>
       <r>    5.5956    0.0000 </r>
       <r>    6.5310    0.0000 </r>
       <r>    6.5310    0.0000 </r>
       <r>    7.1510    0.0000 </r>
       <r>    7.1510    0.0000 </r>
       <r>   16.5617    0.0000 </r>
       <r>   16.5617    0.0000 </r>
       <r>   17.2511    0.0000 </r>
       <r>   17.2511    0.0000 </r>
       <r>   17.9167    0.0000 </r>
       <r>   17.9168    0.0000 </r>
       <r>   19.5338    0.0000 </r>
       <r>   19.5339    0.0000 </r>
      </set>
      <set comment="kpoint 13">
       <r>  -48.9325    1.0000 </r>
       <r>  -48.9307    1.0000 </r>
       <r>  -48.9297    1.0000 </r>
       <r>  -48.9255    1.0000 </r>
       <r>  -48.8195    1.0000 </r>
       <r>  -48.8130    1.0000 </r>
       <r>  -48.7949    1.0000 </r>
       <r>  -48.7943    1.0000 </r>
       <r>  -48.7760    1.0000 </r>
       <r>  -48.7723    1.0000 </r>
       <r>  -48.7718    1.0000 </r>
       <r>  -48.7686    1.0000 </r>
       <r>  -15.5952    1.0000 </r>
       <r>  -15.3647    1.0000 </r>
       <r>  -15.1698    1.0000 </r>
       <r>  -15.0250    1.0000 </r>
       <r>  -14.9792    1.0000 </r>
       <r>  -14.9163    1.0000 </r>
       <r>  -14.9082    1.0000 </r>
       <r>  -14.8707    1.0000 </r>
       <r>   -3.0442    1.0000 </r>
       <r>   -2.9282    1.0000 </r>
       <r>   -2.5702    1.0000 </r>
       <r>   -2.5653    1.0000 </r>
       <r>   -2.3863    1.0000 </r>
       <r>   -2.1537    1.0000 </r>
       <r>   -1.9664    1.0000 </r>
       <r>   -1.8483    1.0000 </r>
       <r>   -1.5083    1.0000 </r>
       <r>   -1.4712    1.0000 </r>
       <r>   -1.1209    1.0000 </r>
       <r>   -1.0153    1.0000 </r>
       <r>   -0.8176    1.0000 </r>
       <r>   -0.4847    1.0000 </r>
       <r>   -0.3685    1.0000 </r>
       <r>   -0.1588    1.0000 </r>
       <r>   -0.0925    1.0000 </r>
       <r>    0.1241    1.0000 </r>
       <r>    0.2577    1.0000 </r>
       <r>    0.3514    1.0000 </r>
       <r>    0.5259    1.0000 </r>
       <r>    0.9142    1.0000 </r>
       <r>    0.9721    1.0000 </r>
       <r>    1.1847    1.0000 </r>
       <r>    1.3482    1.0000 </r>
       <r>    1.5631    1.0000 </r>
       <r>    1.6582    1.0000 </r>
       <r>    1.7053    1.0000 </r>
       <r>    1.9140    1.0000 </r>
       <r>    1.9934    1.0000 </r>
       <r>    2.2934    1.0000 </r>
       <r>    2.3278    1.0000 </r>
       <r>    3.1793    1.0000 </r>
       <r>    3.1991    1.0000 </r>
       <r>    3.3065    1.0000 </r>
       <r>    3.4260    1.0000 </r>
       <r>    5.2030    0.0000 </r>
       <r>    5.2755    0.0000 </r>
       <r>    5.5464    0.0000 </r>
       <r>    5.6612    0.0000 </r>
       <r>    6.3393    0.0000 </r>
       <r>    6.6812    0.0000 </r>
       <r>    7.0648    0.0000 </r>
       <r>    7.0974    0.0000 </r>
       <r>   15.7053    0.0000 </r>
       <r>   16.5857    0.0000 </r>
       <r>   16.6569    0.0000 </r>
       <r>   17.8923    0.0000 </r>
       <r>   18.2726    0.0000 </r>
       <r>   18.2950    0.0000 </r>
       <r>   19.1501    0.0000 </r>
       <r>   19.4003    0.0000 </r>
      </set>
      <set comment="kpoint 14">
       <r>  -48.9064    1.0000 </r>
       <r>  -48.9058    1.0000 </r>
       <r>  -48.9021    1.0000 </r>
       <r>  -48.8968    1.0000 </r>
       <r>  -48.8336    1.0000 </r>
       <r>  -48.8242    1.0000 </r>
       <r>  -48.7914    1.0000 </r>
       <r>  -48.7891    1.0000 </r>
       <r>  -48.7800    1.0000 </r>
       <r>  -48.7753    1.0000 </r>
       <r>  -48.7738    1.0000 </r>
       <r>  -48.7683    1.0000 </r>
       <r>  -16.0132    1.0000 </r>
       <r>  -15.6203    1.0000 </r>
       <r>  -15.3794    1.0000 </r>
       <r>  -14.9625    1.0000 </r>
       <r>  -14.9053    1.0000 </r>
       <r>  -14.8762    1.0000 </r>
       <r>  -14.8746    1.0000 </r>
       <r>  -14.8129    1.0000 </r>
       <r>   -2.7079    1.0000 </r>
       <r>   -2.6642    1.0000 </r>
       <r>   -2.5741    1.0000 </r>
       <r>   -2.5303    1.0000 </r>
       <r>   -2.3727    1.0000 </r>
       <r>   -2.2758    1.0000 </r>
       <r>   -2.2487    1.0000 </r>
       <r>   -2.0192    1.0000 </r>
       <r>   -1.6211    1.0000 </r>
       <r>   -1.4808    1.0000 </r>
       <r>   -1.3443    1.0000 </r>
       <r>   -1.0781    1.0000 </r>
       <r>   -0.8413    1.0000 </r>
       <r>   -0.7604    1.0000 </r>
       <r>   -0.5031    1.0000 </r>
       <r>   -0.1528    1.0000 </r>
       <r>   -0.0133    1.0000 </r>
       <r>    0.0182    1.0000 </r>
       <r>    0.1709    1.0000 </r>
       <r>    0.4560    1.0000 </r>
       <r>    0.5503    1.0000 </r>
       <r>    0.9435    1.0000 </r>
       <r>    1.0052    1.0000 </r>
       <r>    1.2795    1.0000 </r>
       <r>    1.5092    1.0000 </r>
       <r>    1.8858    1.0000 </r>
       <r>    2.0183    1.0000 </r>
       <r>    2.1145    1.0000 </r>
       <r>    2.2537    1.0000 </r>
       <r>    2.3613    1.0000 </r>
       <r>    2.5096    1.0000 </r>
       <r>    2.6983    1.0000 </r>
       <r>    3.0474    1.0000 </r>
       <r>    3.2732    1.0000 </r>
       <r>    3.2762    1.0000 </r>
       <r>    3.4435    1.0000 </r>
       <r>    5.2710    0.0000 </r>
       <r>    5.4477    0.0000 </r>
       <r>    5.5374    0.0000 </r>
       <r>    5.8142    0.0000 </r>
       <r>    6.1623    0.0000 </r>
       <r>    6.8347    0.0000 </r>
       <r>    6.8423    0.0000 </r>
       <r>    7.0243    0.0000 </r>
       <r>   14.5732    0.0000 </r>
       <r>   15.9063    0.0000 </r>
       <r>   16.2371    0.0000 </r>
       <r>   18.0249    0.0000 </r>
       <r>   18.3285    0.0000 </r>
       <r>   18.4680    0.0000 </r>
       <r>   18.9396    0.0000 </r>
       <r>   18.9726    0.0000 </r>
      </set>
      <set comment="kpoint 15">
       <r>  -48.8738    1.0000 </r>
       <r>  -48.8730    1.0000 </r>
       <r>  -48.8703    1.0000 </r>
       <r>  -48.8666    1.0000 </r>
       <r>  -48.8416    1.0000 </r>
       <r>  -48.8323    1.0000 </r>
       <r>  -48.7931    1.0000 </r>
       <r>  -48.7923    1.0000 </r>
       <r>  -48.7807    1.0000 </r>
       <r>  -48.7764    1.0000 </r>
       <r>  -48.7754    1.0000 </r>
       <r>  -48.7692    1.0000 </r>
       <r>  -16.3992    1.0000 </r>
       <r>  -15.8874    1.0000 </r>
       <r>  -15.6271    1.0000 </r>
       <r>  -15.0306    1.0000 </r>
       <r>  -14.8696    1.0000 </r>
       <r>  -14.8312    1.0000 </r>
       <r>  -14.7857    1.0000 </r>
       <r>  -14.7376    1.0000 </r>
       <r>   -3.1875    1.0000 </r>
       <r>   -2.6780    1.0000 </r>
       <r>   -2.6381    1.0000 </r>
       <r>   -2.5226    1.0000 </r>
       <r>   -2.5003    1.0000 </r>
       <r>   -2.3963    1.0000 </r>
       <r>   -2.0721    1.0000 </r>
       <r>   -2.0686    1.0000 </r>
       <r>   -1.7091    1.0000 </r>
       <r>   -1.4586    1.0000 </r>
       <r>   -1.1818    1.0000 </r>
       <r>   -1.1302    1.0000 </r>
       <r>   -1.0234    1.0000 </r>
       <r>   -0.4941    1.0000 </r>
       <r>   -0.2185    1.0000 </r>
       <r>   -0.1223    1.0000 </r>
       <r>   -0.0241    1.0000 </r>
       <r>    0.2939    1.0000 </r>
       <r>    0.3424    1.0000 </r>
       <r>    0.5730    1.0000 </r>
       <r>    0.7011    1.0000 </r>
       <r>    0.8981    1.0000 </r>
       <r>    0.9017    1.0000 </r>
       <r>    1.5298    1.0000 </r>
       <r>    1.7281    1.0000 </r>
       <r>    1.8954    1.0000 </r>
       <r>    2.1693    1.0000 </r>
       <r>    2.3231    1.0000 </r>
       <r>    2.4445    1.0000 </r>
       <r>    2.4738    1.0000 </r>
       <r>    2.7023    1.0000 </r>
       <r>    2.8429    1.0000 </r>
       <r>    3.0077    1.0000 </r>
       <r>    3.2790    1.0000 </r>
       <r>    3.3164    1.0000 </r>
       <r>    3.4803    1.0000 </r>
       <r>    5.4104    0.0000 </r>
       <r>    5.5579    0.0000 </r>
       <r>    5.8726    0.0000 </r>
       <r>    6.1654    0.0000 </r>
       <r>    6.3038    0.0000 </r>
       <r>    6.5917    0.0000 </r>
       <r>    6.8498    0.0000 </r>
       <r>    7.1668    0.0000 </r>
       <r>   13.4548    0.0000 </r>
       <r>   15.1461    0.0000 </r>
       <r>   15.6466    0.0000 </r>
       <r>   16.9517    0.0000 </r>
       <r>   17.4165    0.0000 </r>
       <r>   17.9191    0.0000 </r>
       <r>   18.3117    0.0000 </r>
       <r>   19.0157    0.0000 </r>
      </set>
      <set comment="kpoint 16">
       <r>  -48.8626    1.0000 </r>
       <r>  -48.8549    1.0000 </r>
       <r>  -48.8471    1.0000 </r>
       <r>  -48.8448    1.0000 </r>
       <r>  -48.8273    1.0000 </r>
       <r>  -48.8263    1.0000 </r>
       <r>  -48.7980    1.0000 </r>
       <r>  -48.7951    1.0000 </r>
       <r>  -48.7837    1.0000 </r>
       <r>  -48.7768    1.0000 </r>
       <r>  -48.7750    1.0000 </r>
       <r>  -48.7704    1.0000 </r>
       <r>  -16.6675    1.0000 </r>
       <r>  -16.0871    1.0000 </r>
       <r>  -15.8171    1.0000 </r>
       <r>  -15.1171    1.0000 </r>
       <r>  -14.8399    1.0000 </r>
       <r>  -14.8001    1.0000 </r>
       <r>  -14.7205    1.0000 </r>
       <r>  -14.6786    1.0000 </r>
       <r>   -3.5760    1.0000 </r>
       <r>   -2.9331    1.0000 </r>
       <r>   -2.9244    1.0000 </r>
       <r>   -2.7867    1.0000 </r>
       <r>   -2.4245    1.0000 </r>
       <r>   -2.1751    1.0000 </r>
       <r>   -2.1302    1.0000 </r>
       <r>   -1.9544    1.0000 </r>
       <r>   -1.6644    1.0000 </r>
       <r>   -1.5382    1.0000 </r>
       <r>   -1.5031    1.0000 </r>
       <r>   -0.7685    1.0000 </r>
       <r>   -0.7025    1.0000 </r>
       <r>   -0.4931    1.0000 </r>
       <r>   -0.1280    1.0000 </r>
       <r>    0.2380    1.0000 </r>
       <r>    0.3985    1.0000 </r>
       <r>    0.4074    1.0000 </r>
       <r>    0.6170    1.0000 </r>
       <r>    0.7501    1.0000 </r>
       <r>    0.8155    1.0000 </r>
       <r>    0.8381    1.0000 </r>
       <r>    0.9340    1.0000 </r>
       <r>    1.7603    1.0000 </r>
       <r>    1.7842    1.0000 </r>
       <r>    1.9607    1.0000 </r>
       <r>    2.2016    1.0000 </r>
       <r>    2.2266    1.0000 </r>
       <r>    2.4663    1.0000 </r>
       <r>    2.5570    1.0000 </r>
       <r>    2.6024    1.0000 </r>
       <r>    2.7765    1.0000 </r>
       <r>    3.1236    1.0000 </r>
       <r>    3.1567    1.0000 </r>
       <r>    3.2314    1.0000 </r>
       <r>    3.5135    1.0000 </r>
       <r>    5.2546    0.0000 </r>
       <r>    5.7259    0.0000 </r>
       <r>    6.4396    0.0000 </r>
       <r>    6.5638    0.0000 </r>
       <r>    6.6306    0.0000 </r>
       <r>    6.7381    0.0000 </r>
       <r>    6.8393    0.0000 </r>
       <r>    7.3111    0.0000 </r>
       <r>   12.5886    0.0000 </r>
       <r>   14.4768    0.0000 </r>
       <r>   15.0915    0.0000 </r>
       <r>   15.9541    0.0000 </r>
       <r>   16.4434    0.0000 </r>
       <r>   17.4023    0.0000 </r>
       <r>   17.5601    0.0000 </r>
       <r>   18.6980    0.0000 </r>
      </set>
      <set comment="kpoint 17">
       <r>  -48.8634    1.0000 </r>
       <r>  -48.8563    1.0000 </r>
       <r>  -48.8361    1.0000 </r>
       <r>  -48.8338    1.0000 </r>
       <r>  -48.8194    1.0000 </r>
       <r>  -48.8171    1.0000 </r>
       <r>  -48.7988    1.0000 </r>
       <r>  -48.7969    1.0000 </r>
       <r>  -48.7849    1.0000 </r>
       <r>  -48.7795    1.0000 </r>
[...]
       <r>     4.6463     0.0000    56.0000 </r>
       <r>     4.8998     0.0000    56.0000 </r>
       <r>     5.1533     0.0276    56.0070 </r>
       <r>     5.4069     1.3053    56.9274 </r>
       <r>     5.6604     1.6536    58.2014 </r>
       <r>     5.9140     0.9579    59.1571 </r>
       <r>     6.1675     0.2427    59.4258 </r>
       <r>     6.4210     1.1494    60.0486 </r>
       <r>     6.6746     1.6226    61.0542 </r>
       <r>     6.9281     1.4816    62.4363 </r>
       <r>     7.1816     1.0024    63.8577 </r>
       <r>     7.4352     0.0377    63.9989 </r>
       <r>     7.6887     0.0000    64.0000 </r>
       <r>     7.9422     0.0000    64.0000 </r>
       <r>     8.1958     0.0000    64.0000 </r>
       <r>     8.4493     0.0000    64.0000 </r>
       <r>     8.7028     0.0000    64.0000 </r>
       <r>     8.9564     0.0000    64.0000 </r>
       <r>     9.2099     0.0000    64.0000 </r>
       <r>     9.4634     0.0000    64.0000 </r>
       <r>     9.7170     0.0000    64.0000 </r>
       <r>     9.9705     0.0000    64.0000 </r>
       <r>    10.2240     0.0000    64.0000 </r>
       <r>    10.4776     0.0000    64.0000 </r>
       <r>    10.7311     0.0000    64.0000 </r>
       <r>    10.9846     0.0000    64.0000 </r>
       <r>    11.2382     0.0000    64.0000 </r>
       <r>    11.4917     0.0000    64.0000 </r>
       <r>    11.7452     0.0000    64.0000 </r>
       <r>    11.9988     0.0141    64.0036 </r>
       <r>    12.2523     0.0422    64.0143 </r>
       <r>    12.5058     0.0565    64.0393 </r>
       <r>    12.7594     0.0289    64.0752 </r>
       <r>    13.0129     0.0845    64.1250 </r>
       <r>    13.2664     0.0327    64.1619 </r>
       <r>    13.5200     0.1972    64.2679 </r>
       <r>    13.7735     0.0288    64.3323 </r>
       <r>    14.0270     0.2219    64.4456 </r>
       <r>    14.2806     0.0563    64.5429 </r>
       <r>    14.5341     0.4224    64.6857 </r>
       <r>    14.7877     0.0136    64.8142 </r>
       <r>    15.0412     0.4068    65.0353 </r>
       <r>    15.2947     0.3944    65.2464 </r>
       <r>    15.5483     0.4701    65.5013 </r>
       <r>    15.8018     0.3640    65.8209 </r>
       <r>    16.0553     0.2253    66.2464 </r>
       <r>    16.3089     0.8198    66.7757 </r>
       <r>    16.5624     0.6553    67.1911 </r>
       <r>    16.8159     0.3367    67.7175 </r>
       <r>    17.0695     0.4368    68.1429 </r>
       <r>    17.3230     0.1690    68.5286 </r>
       <r>    17.5765     0.2388    68.8213 </r>
       <r>    17.8301     0.6897    69.2141 </r>
       <r>    18.0836     0.8669    69.7662 </r>
       <r>    18.3371     0.8200    70.3758 </r>
       <r>    18.5907     0.3729    70.8303 </r>
       <r>    18.8442     0.4970    71.1617 </r>
       <r>    19.0977     0.5911    71.5999 </r>
       <r>    19.3513     0.3833    71.8972 </r>
       <r>    19.6048     0.0563    72.0000 </r>
       <r>    19.8583     0.0000    72.0000 </r>
       <r>    20.1119     0.0000    72.0000 </r>
       <r>    20.3654     0.0000    72.0000 </r>
       <r>    20.6189     0.0000    72.0000 </r>
       <r>    20.8725     0.0000    72.0000 </r>
       <r>    21.1260     0.0000    72.0000 </r>
       <r>    21.3795     0.0000    72.0000 </r>
       <r>    21.6331     0.0000    72.0000 </r>
       <r>    21.8866     0.0000    72.0000 </r>
       <r>    22.1401     0.0000    72.0000 </r>
       <r>    22.3937     0.0000    72.0000 </r>
       <r>    22.6472     0.0000    72.0000 </r>
       <r>    22.9007     0.0000    72.0000 </r>
       <r>    23.1543     0.0000    72.0000 </r>
       <r>    23.4078     0.0000    72.0000 </r>
       <r>    23.6613     0.0000    72.0000 </r>
      </set>
      <set comment="spin 2">
       <r>   -52.3989     0.0000     0.0000 </r>
       <r>   -52.1454     0.0000     0.0000 </r>
       <r>   -51.8919     0.0000     0.0000 </r>
       <r>   -51.6383     0.0000     0.0000 </r>
       <r>   -51.3848     0.0000     0.0000 </r>
       <r>   -51.1313     0.0000     0.0000 </r>
       <r>   -50.8777     0.0000     0.0000 </r>
       <r>   -50.6242     0.0000     0.0000 </r>
       <r>   -50.3707     0.0000     0.0000 </r>
       <r>   -50.1171     0.0000     0.0000 </r>
       <r>   -49.8636     0.0000     0.0000 </r>
       <r>   -49.6100     0.0000     0.0000 </r>
       <r>   -49.3565     0.0000     0.0000 </r>
       <r>   -49.1030     0.0000     0.0000 </r>
       <r>   -48.8494     0.0000     0.0000 </r>
       <r>   -48.5959     0.0000     0.0000 </r>
       <r>   -48.3424     0.0000     0.0000 </r>
       <r>   -48.0888     0.0000     0.0000 </r>
       <r>   -47.8353     0.0000     0.0000 </r>
       <r>   -47.5818     0.0000     0.0000 </r>
       <r>   -47.3282     0.0000     0.0000 </r>
       <r>   -47.0747     0.0000     0.0000 </r>
       <r>   -46.8212     0.0000     0.0000 </r>
       <r>   -46.5676     0.0000     0.0000 </r>
       <r>   -46.3141     0.0000     0.0000 </r>
       <r>   -46.0606     0.0000     0.0000 </r>
       <r>   -45.8070     0.0000     0.0000 </r>
       <r>   -45.5535     0.0000     0.0000 </r>
       <r>   -45.3000     0.0000     0.0000 </r>
       <r>   -45.0464     0.0000     0.0000 </r>
       <r>   -44.7929     7.9356     3.8905 </r>
       <r>   -44.5394    12.4807    12.0000 </r>
       <r>   -44.2858     0.0000    12.0000 </r>
       <r>   -44.0323     0.0000    12.0000 </r>
       <r>   -43.7788     0.0000    12.0000 </r>
       <r>   -43.5252     0.0000    12.0000 </r>
       <r>   -43.2717     0.0000    12.0000 </r>
       <r>   -43.0182     0.0000    12.0000 </r>
       <r>   -42.7646     0.0000    12.0000 </r>
       <r>   -42.5111     0.0000    12.0000 </r>
       <r>   -42.2576     0.0000    12.0000 </r>
       <r>   -42.0040     0.0000    12.0000 </r>
       <r>   -41.7505     0.0000    12.0000 </r>
       <r>   -41.4970     0.0000    12.0000 </r>
       <r>   -41.2434     0.0000    12.0000 </r>
       <r>   -40.9899     0.0000    12.0000 </r>
       <r>   -40.7363     0.0000    12.0000 </r>
       <r>   -40.4828     0.0000    12.0000 </r>
       <r>   -40.2293     0.0000    12.0000 </r>
       <r>   -39.9757     0.0000    12.0000 </r>
       <r>   -39.7222     0.0000    12.0000 </r>
       <r>   -39.4687     0.0000    12.0000 </r>
       <r>   -39.2151     0.0000    12.0000 </r>
       <r>   -38.9616     0.0000    12.0000 </r>
       <r>   -38.7081     0.0000    12.0000 </r>
       <r>   -38.4545     0.0000    12.0000 </r>
       <r>   -38.2010     0.0000    12.0000 </r>
       <r>   -37.9475     0.0000    12.0000 </r>
       <r>   -37.6939     0.0000    12.0000 </r>
       <r>   -37.4404     0.0000    12.0000 </r>
       <r>   -37.1869     0.0000    12.0000 </r>
       <r>   -36.9333     0.0000    12.0000 </r>
       <r>   -36.6798     0.0000    12.0000 </r>
       <r>   -36.4263     0.0000    12.0000 </r>
       <r>   -36.1727     0.0000    12.0000 </r>
       <r>   -35.9192     0.0000    12.0000 </r>
       <r>   -35.6657     0.0000    12.0000 </r>
       <r>   -35.4121     0.0000    12.0000 </r>
       <r>   -35.1586     0.0000    12.0000 </r>
       <r>   -34.9051     0.0000    12.0000 </r>
       <r>   -34.6515     0.0000    12.0000 </r>
       <r>   -34.3980     0.0000    12.0000 </r>
       <r>   -34.1445     0.0000    12.0000 </r>
       <r>   -33.8909     0.0000    12.0000 </r>
       <r>   -33.6374     0.0000    12.0000 </r>
       <r>   -33.3839     0.0000    12.0000 </r>
       <r>   -33.1303     0.0000    12.0000 </r>
       <r>   -32.8768     0.0000    12.0000 </r>
       <r>   -32.6233     0.0000    12.0000 </r>
       <r>   -32.3697     0.0000    12.0000 </r>
       <r>   -32.1162     0.0000    12.0000 </r>
       <r>   -31.8627     0.0000    12.0000 </r>
       <r>   -31.6091     0.0000    12.0000 </r>
       <r>   -31.3556     0.0000    12.0000 </r>
       <r>   -31.1020     0.0000    12.0000 </r>
       <r>   -30.8485     0.0000    12.0000 </r>
       <r>   -30.5950     0.0000    12.0000 </r>
       <r>   -30.3414     0.0000    12.0000 </r>
       <r>   -30.0879     0.0000    12.0000 </r>
       <r>   -29.8344     0.0000    12.0000 </r>
       <r>   -29.5808     0.0000    12.0000 </r>
       <r>   -29.3273     0.0000    12.0000 </r>
       <r>   -29.0738     0.0000    12.0000 </r>
       <r>   -28.8202     0.0000    12.0000 </r>
       <r>   -28.5667     0.0000    12.0000 </r>
       <r>   -28.3132     0.0000    12.0000 </r>
       <r>   -28.0596     0.0000    12.0000 </r>
       <r>   -27.8061     0.0000    12.0000 </r>
       <r>   -27.5526     0.0000    12.0000 </r>
       <r>   -27.2990     0.0000    12.0000 </r>
       <r>   -27.0455     0.0000    12.0000 </r>
       <r>   -26.7920     0.0000    12.0000 </r>
       <r>   -26.5384     0.0000    12.0000 </r>
       <r>   -26.2849     0.0000    12.0000 </r>
       <r>   -26.0314     0.0000    12.0000 </r>
       <r>   -25.7778     0.0000    12.0000 </r>
       <r>   -25.5243     0.0000    12.0000 </r>
       <r>   -25.2708     0.0000    12.0000 </r>
       <r>   -25.0172     0.0000    12.0000 </r>
       <r>   -24.7637     0.0000    12.0000 </r>
       <r>   -24.5102     0.0000    12.0000 </r>
       <r>   -24.2566     0.0000    12.0000 </r>
       <r>   -24.0031     0.0000    12.0000 </r>
       <r>   -23.7496     0.0000    12.0000 </r>
       <r>   -23.4960     0.0000    12.0000 </r>
       <r>   -23.2425     0.0000    12.0000 </r>
       <r>   -22.9890     0.0000    12.0000 </r>
       <r>   -22.7354     0.0000    12.0000 </r>
       <r>   -22.4819     0.0000    12.0000 </r>
       <r>   -22.2283     0.0000    12.0000 </r>
       <r>   -21.9748     0.0000    12.0000 </r>
       <r>   -21.7213     0.0000    12.0000 </r>
       <r>   -21.4677     0.0000    12.0000 </r>
       <r>   -21.2142     0.0000    12.0000 </r>
       <r>   -20.9607     0.0000    12.0000 </r>
       <r>   -20.7071     0.0000    12.0000 </r>
       <r>   -20.4536     0.0000    12.0000 </r>
       <r>   -20.2001     0.0000    12.0000 </r>
       <r>   -19.9465     0.0000    12.0000 </r>
       <r>   -19.6930     0.0000    12.0000 </r>
       <r>   -19.4395     0.0000    12.0000 </r>
       <r>   -19.1859     0.0000    12.0000 </r>
       <r>   -18.9324     0.0000    12.0000 </r>
       <r>   -18.6789     0.0000    12.0000 </r>
       <r>   -18.4253     0.0000    12.0000 </r>
       <r>   -18.1718     0.0000    12.0000 </r>
       <r>   -17.9183     0.0000    12.0000 </r>
       <r>   -17.6647     0.0000    12.0000 </r>
       <r>   -17.4112     0.0000    12.0000 </r>
       <r>   -17.1577     0.0000    12.0000 </r>
       <r>   -16.9041     0.0000    12.0000 </r>
       <r>   -16.6506     0.0707    12.0179 </r>
       <r>   -16.3971     0.3222    12.2210 </r>
       <r>   -16.1435     0.7925    12.6973 </r>
       <r>   -15.8900     0.5298    13.0272 </r>
       <r>   -15.6365     0.6200    13.3893 </r>
       <r>   -15.3829     1.0101    13.8954 </r>
       <r>   -15.1294     2.1849    14.9504 </r>
       <r>   -14.8759     1.2530    16.1891 </r>
       <r>   -14.6223     4.5110    19.5973 </r>
       <r>   -14.3688     0.0000    20.0000 </r>
       <r>   -14.1153     0.0000    20.0000 </r>
       <r>   -13.8617     0.0000    20.0000 </r>
       <r>   -13.6082     0.0000    20.0000 </r>
       <r>   -13.3547     0.0000    20.0000 </r>
       <r>   -13.1011     0.0000    20.0000 </r>
       <r>   -12.8476     0.0000    20.0000 </r>
       <r>   -12.5940     0.0000    20.0000 </r>
       <r>   -12.3405     0.0000    20.0000 </r>
       <r>   -12.0870     0.0000    20.0000 </r>
       <r>   -11.8334     0.0000    20.0000 </r>
       <r>   -11.5799     0.0000    20.0000 </r>
       <r>   -11.3264     0.0000    20.0000 </r>
       <r>   -11.0728     0.0000    20.0000 </r>
       <r>   -10.8193     0.0000    20.0000 </r>
       <r>   -10.5658     0.0000    20.0000 </r>
       <r>   -10.3122     0.0000    20.0000 </r>
       <r>   -10.0587     0.0000    20.0000 </r>
       <r>    -9.8052     0.0000    20.0000 </r>
       <r>    -9.5516     0.0000    20.0000 </r>
       <r>    -9.2981     0.0000    20.0000 </r>
       <r>    -9.0446     0.0000    20.0000 </r>
       <r>    -8.7910     0.0000    20.0000 </r>
       <r>    -8.5375     0.0000    20.0000 </r>
       <r>    -8.2840     0.0000    20.0000 </r>
       <r>    -8.0304     0.0000    20.0000 </r>
       <r>    -7.7769     0.0000    20.0000 </r>
       <r>    -7.5234     0.0000    20.0000 </r>
       <r>    -7.2698     0.0000    20.0000 </r>
       <r>    -7.0163     0.0000    20.0000 </r>
       <r>    -6.7628     0.0000    20.0000 </r>
       <r>    -6.5092     0.0000    20.0000 </r>
       <r>    -6.2557     0.0000    20.0000 </r>
       <r>    -6.0022     0.0000    20.0000 </r>
       <r>    -5.7486     0.0000    20.0000 </r>
       <r>    -5.4951     0.0000    20.0000 </r>
       <r>    -5.2416     0.0000    20.0000 </r>
       <r>    -4.9880     0.0000    20.0000 </r>
       <r>    -4.7345     0.0000    20.0000 </r>
       <r>    -4.4810     0.0000    20.0000 </r>
       <r>    -4.2274     0.0000    20.0000 </r>
       <r>    -3.9739     0.0000    20.0000 </r>
       <r>    -3.7203     0.0000    20.0000 </r>
       <r>    -3.4668     0.0000    20.0000 </r>
       <r>    -3.2133     0.0000    20.0000 </r>
       <r>    -2.9597     0.0156    20.0040 </r>
       <r>    -2.7062     0.2621    20.1272 </r>
       <r>    -2.4527     0.6537    20.3836 </r>
       <r>    -2.1991     1.3895    21.2166 </r>
       <r>    -1.9456     1.4741    22.6702 </r>
       <r>    -1.6921     1.4645    23.8570 </r>
       <r>    -1.4385     2.8745    25.9002 </r>
       <r>    -1.1850     1.7445    27.5852 </r>
       <r>    -0.9315     0.5714    28.2877 </r>
       <r>    -0.6779     1.1438    29.4864 </r>
       <r>    -0.4244     1.4081    30.5320 </r>
       <r>    -0.1709     0.8868    31.4998 </r>
       <r>     0.0827     0.4446    32.0770 </r>
       <r>     0.3362     1.6232    33.1008 </r>
       <r>     0.5897     2.0077    34.5554 </r>
       <r>     0.8433     2.0457    35.7794 </r>
       <r>     1.0968     1.2928    37.2206 </r>
       <r>     1.3503     0.7082    37.9760 </r>
       <r>     1.6039     1.3077    38.9387 </r>
       <r>     1.8574     1.2769    39.9344 </r>
       <r>     2.1109     1.4724    40.9769 </r>
       <r>     2.3645     1.0172    42.2115 </r>
       <r>     2.6180     1.1445    43.2830 </r>
       <r>     2.8715     0.4690    43.7189 </r>
       <r>     3.1251     0.1281    43.9468 </r>
       <r>     3.3786     0.0137    43.9999 </r>
       <r>     3.6321     0.0000    44.0000 </r>
       <r>     3.8857     0.0000    44.0000 </r>
       <r>     4.1392     0.0000    44.0000 </r>
       <r>     4.3927     0.0000    44.0000 </r>
       <r>     4.6463     0.0000    44.0000 </r>
       <r>     4.8998     0.0000    44.0000 </r>
       <r>     5.1533     0.0000    44.0000 </r>
       <r>     5.4069     0.3420    44.0974 </r>
       <r>     5.6604     2.8622    45.8078 </r>
       <r>     5.9140     3.4815    48.3434 </r>
       <r>     6.1675     4.3147    50.5939 </r>
       <r>     6.4210     1.2524    52.3711 </r>
       <r>     6.6746     2.6091    53.8615 </r>
       <r>     6.9281     1.4625    55.1065 </r>
       <r>     7.1816     1.7400    56.1840 </r>
       <r>     7.4352     1.7543    57.7198 </r>
       <r>     7.6887     1.0511    59.0808 </r>
       <r>     7.9422     0.4526    59.4433 </r>
       <r>     8.1958     1.2029    60.6800 </r>
       <r>     8.4493     1.5577    62.1307 </r>
       <r>     8.7028     0.7481    63.6468 </r>
       <r>     8.9564     0.1963    63.9319 </r>
       <r>     9.2099     0.0141    64.0000 </r>
       <r>     9.4634     0.0000    64.0000 </r>
       <r>     9.7170     0.0000    64.0000 </r>
       <r>     9.9705     0.0000    64.0000 </r>
       <r>    10.2240     0.0000    64.0000 </r>
       <r>    10.4776     0.0000    64.0000 </r>
       <r>    10.7311     0.0000    64.0000 </r>
       <r>    10.9846     0.0000    64.0000 </r>
       <r>    11.2382     0.0000    64.0000 </r>
       <r>    11.4917     0.0000    64.0000 </r>
       <r>    11.7452     0.0000    64.0000 </r>
       <r>    11.9988     0.0000    64.0000 </r>
       <r>    12.2523     0.0000    64.0000 </r>
       <r>    12.5058     0.0000    64.0000 </r>
       <r>    12.7594     0.0282    64.0107 </r>
       <r>    13.0129     0.0559    64.0392 </r>
       <r>    13.2664     0.0225    64.0736 </r>
       <r>    13.5200     0.0576    64.1182 </r>
       <r>    13.7735     0.0891    64.1619 </r>
       <r>    14.0270     0.1409    64.2679 </r>
       <r>    14.2806     0.0563    64.3393 </r>
       <r>    14.5341     0.2113    64.4643 </r>
       <r>    14.7877     0.1355    64.5486 </r>
       <r>    15.0412     0.2817    64.7143 </r>
       <r>    15.2947     0.1151    64.8399 </r>
       <r>    15.5483     0.2088    65.0494 </r>
       <r>    15.8018     0.2146    65.2365 </r>
       <r>    16.0553     0.3420    65.5188 </r>
       <r>    16.3089     0.3792    65.8640 </r>
       <r>    16.5624     0.4973    66.2904 </r>
       <r>    16.8159     0.5090    66.7755 </r>
       <r>    17.0695     0.7229    67.2940 </r>
       <r>    17.3230     0.3461    67.7056 </r>
       <r>    17.5765     0.2223    68.0028 </r>
       <r>    17.8301     0.5309    68.5025 </r>
       <r>    18.0836     0.5073    68.6929 </r>
       <r>    18.3371     0.5657    68.9684 </r>
       <r>    18.5907     0.5517    69.5434 </r>
       <r>    18.8442     0.8825    70.0452 </r>
       <r>    19.0977     0.6469    70.6069 </r>
       <r>    19.3513     0.3663    70.9643 </r>
       <r>    19.6048     0.5148    71.3805 </r>
       <r>    19.8583     0.4401    71.7330 </r>
       <r>    20.1119     0.1001    71.9468 </r>
       <r>    20.3654     0.0000    72.0000 </r>
       <r>    20.6189     0.0000    72.0000 </r>
       <r>    20.8725     0.0000    72.0000 </r>
       <r>    21.1260     0.0000    72.0000 </r>
       <r>    21.3795     0.0000    72.0000 </r>
       <r>    21.6331     0.0000    72.0000 </r>
       <r>    21.8866     0.0000    72.0000 </r>
       <r>    22.1401     0.0000    72.0000 </r>
       <r>    22.3937     0.0000    72.0000 </r>
       <r>    22.6472     0.0000    72.0000 </r>
       <r>    22.9007     0.0000    72.0000 </r>
       <r>    23.1543     0.0000    72.0000 </r>
       <r>    23.4078     0.0000    72.0000 </r>
       <r>    23.6613     0.0000    72.0000 </r>
      </set>
     </set>
    </array>
   </total>
  </dos>
 </calculation>
 <structure name="finalpos" >
  <crystal>
   <varray name="basis" >
    <v>       2.85861028       0.00000044      -0.00000073 </v>
    <v>      -0.00000066       4.56899237       0.00000041 </v>
    <v>      -0.00000067      -0.00000453       9.17516663 </v>
   </varray>
   <i name="volume">    119.83656289 </i>
   <varray name="rec_basis" >
    <v>       0.34982033       0.00000005       0.00000003 </v>
    <v>      -0.00000003       0.21886664       0.00000011 </v>
    <v>       0.00000003      -0.00000001       0.10898985 </v>
   </varray>
  </crystal>
  <varray name="positions" >
   <v>       0.25000216       0.03706890       0.86559611 </v>
   <v>       0.75000165       0.96293100       0.13440384 </v>
   <v>       0.75000173       0.53706856       0.63440363 </v>
   <v>       0.25000265       0.46293133       0.36559631 </v>
   <v>       0.24999993       0.71585118       0.53024146 </v>
   <v>       0.74999881       0.21585044       0.96975878 </v>
   <v>       0.24999890       0.78415010       0.03024147 </v>
   <v>       0.74999996       0.28415009       0.46975854 </v>
   <v>       0.24999926       0.15701588       0.22600744 </v>
   <v>       0.24999818       0.34298455       0.72600676 </v>
   <v>       0.74999819       0.65701603       0.27399346 </v>
   <v>       0.74999860       0.84298295       0.77399320 </v>
  </varray>
 </structure>
</modeling>
