unknown system                          
           1
     2.858610    0.000000   -0.000001
    -0.000001    4.568992    0.000000
    -0.000001   -0.000005    9.175167
   Mn   O 
   4   8
Direct configuration=     1
   0.25000216  0.03706890  0.86559611
   0.75000165  0.96293100  0.13440384
   0.75000173  0.53706856  0.63440363
   0.25000265  0.46293133  0.36559631
   0.24999993  0.71585118  0.53024146
   0.74999881  0.21585044  0.96975878
   0.24999890  0.78415010  0.03024147
   0.74999996  0.28415009  0.46975854
   0.24999926  0.15701588  0.22600744
   0.24999818  0.34298455  0.72600676
   0.74999819  0.65701603  0.27399346
   0.74999860  0.84298295  0.77399320
