  12  12   1   0
  0.1032503E+02  0.2875312E-09  0.4651682E-09  0.9263552E-09  0.5000000E-15
  1.000000000000000E-004
  CAR 
 unknown system                          
     23.66119911    -52.39921918  301      3.75872299      1.00000000
    -52.399  0.0000E+00  0.0000E+00  0.0000E+00  0.0000E+00
    -52.146  0.0000E+00  0.0000E+00  0.0000E+00  0.0000E+00
    -51.892  0.0000E+00  0.0000E+00  0.0000E+00  0.0000E+00
    -51.639  0.0000E+00  0.0000E+00  0.0000E+00  0.0000E+00
    -51.385  0.0000E+00  0.0000E+00  0.0000E+00  0.0000E+00
    -51.132  0.0000E+00  0.0000E+00  0.0000E+00  0.0000E+00
    -50.878  0.0000E+00  0.0000E+00  0.0000E+00  0.0000E+00
    -50.624  0.0000E+00  0.0000E+00  0.0000E+00  0.0000E+00
    -50.371  0.0000E+00  0.0000E+00  0.0000E+00  0.0000E+00
    -50.117  0.0000E+00  0.0000E+00  0.0000E+00  0.0000E+00
    -49.864  0.0000E+00  0.0000E+00  0.0000E+00  0.0000E+00
    -49.610  0.0000E+00  0.0000E+00  0.0000E+00  0.0000E+00
    -49.357  0.0000E+00  0.0000E+00  0.0000E+00  0.0000E+00
    -49.103  0.0000E+00  0.0000E+00  0.0000E+00  0.0000E+00
    -48.850  0.5289E-01  0.0000E+00  0.1754E-01  0.0000E+00
    -48.596  0.0000E+00  0.0000E+00  0.6030E-01  0.0000E+00
    -48.343  0.0000E+00  0.0000E+00  0.6030E-01  0.0000E+00
    -48.089  0.0000E+00  0.0000E+00  0.6030E-01  0.0000E+00
    -47.836  0.0000E+00  0.0000E+00  0.6030E-01  0.0000E+00
    -47.582  0.0000E+00  0.0000E+00  0.6030E-01  0.0000E+00
    -47.329  0.0000E+00  0.0000E+00  0.6030E-01  0.0000E+00
    -47.075  0.0000E+00  0.0000E+00  0.6030E-01  0.0000E+00
    -46.821  0.0000E+00  0.0000E+00  0.6030E-01  0.0000E+00
    -46.568  0.0000E+00  0.0000E+00  0.6030E-01  0.0000E+00
    -46.314  0.0000E+00  0.0000E+00  0.6030E-01  0.0000E+00
    -46.061  0.0000E+00  0.0000E+00  0.6030E-01  0.0000E+00
    -45.807  0.0000E+00  0.0000E+00  0.6030E-01  0.0000E+00
    -45.554  0.0000E+00  0.0000E+00  0.6030E-01  0.0000E+00
    -45.300  0.0000E+00  0.0000E+00  0.6030E-01  0.0000E+00
    -45.047  0.0000E+00  0.0000E+00  0.6030E-01  0.0000E+00
    -44.793  0.0000E+00  0.3987E-01  0.6030E-01  0.1955E-01
    -44.540  0.0000E+00  0.6272E-01  0.6030E-01  0.6030E-01
    -44.286  0.0000E+00  0.0000E+00  0.6030E-01  0.6030E-01
    -44.033  0.0000E+00  0.0000E+00  0.6030E-01  0.6030E-01
    -43.779  0.0000E+00  0.0000E+00  0.6030E-01  0.6030E-01
    -43.526  0.0000E+00  0.0000E+00  0.6030E-01  0.6030E-01
    -43.272  0.0000E+00  0.0000E+00  0.6030E-01  0.6030E-01
    -43.018  0.0000E+00  0.0000E+00  0.6030E-01  0.6030E-01
    -42.765  0.0000E+00  0.0000E+00  0.6030E-01  0.6030E-01
    -42.511  0.0000E+00  0.0000E+00  0.6030E-01  0.6030E-01
    -42.258  0.0000E+00  0.0000E+00  0.6030E-01  0.6030E-01
    -42.004  0.0000E+00  0.0000E+00  0.6030E-01  0.6030E-01
    -41.751  0.0000E+00  0.0000E+00  0.6030E-01  0.6030E-01
    -41.497  0.0000E+00  0.0000E+00  0.6030E-01  0.6030E-01
    -41.244  0.0000E+00  0.0000E+00  0.6030E-01  0.6030E-01
    -40.990  0.0000E+00  0.0000E+00  0.6030E-01  0.6030E-01
    -40.737  0.0000E+00  0.0000E+00  0.6030E-01  0.6030E-01
    -40.483  0.0000E+00  0.0000E+00  0.6030E-01  0.6030E-01
    -40.230  0.0000E+00  0.0000E+00  0.6030E-01  0.6030E-01
    -39.976  0.0000E+00  0.0000E+00  0.6030E-01  0.6030E-01
    -39.722  0.0000E+00  0.0000E+00  0.6030E-01  0.6030E-01
    -39.469  0.0000E+00  0.0000E+00  0.6030E-01  0.6030E-01
    -39.215  0.0000E+00  0.0000E+00  0.6030E-01  0.6030E-01
    -38.962  0.0000E+00  0.0000E+00  0.6030E-01  0.6030E-01
    -38.708  0.0000E+00  0.0000E+00  0.6030E-01  0.6030E-01
    -38.455  0.0000E+00  0.0000E+00  0.6030E-01  0.6030E-01
    -38.201  0.0000E+00  0.0000E+00  0.6030E-01  0.6030E-01
    -37.948  0.0000E+00  0.0000E+00  0.6030E-01  0.6030E-01
    -37.694  0.0000E+00  0.0000E+00  0.6030E-01  0.6030E-01
    -37.441  0.0000E+00  0.0000E+00  0.6030E-01  0.6030E-01
    -37.187  0.0000E+00  0.0000E+00  0.6030E-01  0.6030E-01
    -36.934  0.0000E+00  0.0000E+00  0.6030E-01  0.6030E-01
    -36.680  0.0000E+00  0.0000E+00  0.6030E-01  0.6030E-01
    -36.427  0.0000E+00  0.0000E+00  0.6030E-01  0.6030E-01
    -36.173  0.0000E+00  0.0000E+00  0.6030E-01  0.6030E-01
    -35.919  0.0000E+00  0.0000E+00  0.6030E-01  0.6030E-01
    -35.666  0.0000E+00  0.0000E+00  0.6030E-01  0.6030E-01
    -35.412  0.0000E+00  0.0000E+00  0.6030E-01  0.6030E-01
    -35.159  0.0000E+00  0.0000E+00  0.6030E-01  0.6030E-01
    -34.905  0.0000E+00  0.0000E+00  0.6030E-01  0.6030E-01
    -34.652  0.0000E+00  0.0000E+00  0.6030E-01  0.6030E-01
    -34.398  0.0000E+00  0.0000E+00  0.6030E-01  0.6030E-01
    -34.145  0.0000E+00  0.0000E+00  0.6030E-01  0.6030E-01
    -33.891  0.0000E+00  0.0000E+00  0.6030E-01  0.6030E-01
    -33.638  0.0000E+00  0.0000E+00  0.6030E-01  0.6030E-01
    -33.384  0.0000E+00  0.0000E+00  0.6030E-01  0.6030E-01
    -33.131  0.0000E+00  0.0000E+00  0.6030E-01  0.6030E-01
    -32.877  0.0000E+00  0.0000E+00  0.6030E-01  0.6030E-01
    -32.624  0.0000E+00  0.0000E+00  0.6030E-01  0.6030E-01
    -32.370  0.0000E+00  0.0000E+00  0.6030E-01  0.6030E-01
    -32.116  0.0000E+00  0.0000E+00  0.6030E-01  0.6030E-01
    -31.863  0.0000E+00  0.0000E+00  0.6030E-01  0.6030E-01
    -31.609  0.0000E+00  0.0000E+00  0.6030E-01  0.6030E-01
    -31.356  0.0000E+00  0.0000E+00  0.6030E-01  0.6030E-01
    -31.102  0.0000E+00  0.0000E+00  0.6030E-01  0.6030E-01
    -30.849  0.0000E+00  0.0000E+00  0.6030E-01  0.6030E-01
    -30.595  0.0000E+00  0.0000E+00  0.6030E-01  0.6030E-01
    -30.342  0.0000E+00  0.0000E+00  0.6030E-01  0.6030E-01
    -30.088  0.0000E+00  0.0000E+00  0.6030E-01  0.6030E-01
    -29.835  0.0000E+00  0.0000E+00  0.6030E-01  0.6030E-01
    -29.581  0.0000E+00  0.0000E+00  0.6030E-01  0.6030E-01
    -29.328  0.0000E+00  0.0000E+00  0.6030E-01  0.6030E-01
    -29.074  0.0000E+00  0.0000E+00  0.6030E-01  0.6030E-01
    -28.820  0.0000E+00  0.0000E+00  0.6030E-01  0.6030E-01
    -28.567  0.0000E+00  0.0000E+00  0.6030E-01  0.6030E-01
    -28.313  0.0000E+00  0.0000E+00  0.6030E-01  0.6030E-01
    -28.060  0.0000E+00  0.0000E+00  0.6030E-01  0.6030E-01
    -27.806  0.0000E+00  0.0000E+00  0.6030E-01  0.6030E-01
    -27.553  0.0000E+00  0.0000E+00  0.6030E-01  0.6030E-01
    -27.299  0.0000E+00  0.0000E+00  0.6030E-01  0.6030E-01
    -27.046  0.0000E+00  0.0000E+00  0.6030E-01  0.6030E-01
    -26.792  0.0000E+00  0.0000E+00  0.6030E-01  0.6030E-01
    -26.539  0.0000E+00  0.0000E+00  0.6030E-01  0.6030E-01
    -26.285  0.0000E+00  0.0000E+00  0.6030E-01  0.6030E-01
    -26.032  0.0000E+00  0.0000E+00  0.6030E-01  0.6030E-01
    -25.778  0.0000E+00  0.0000E+00  0.6030E-01  0.6030E-01
    -25.525  0.0000E+00  0.0000E+00  0.6030E-01  0.6030E-01
    -25.271  0.0000E+00  0.0000E+00  0.6030E-01  0.6030E-01
    -25.017  0.0000E+00  0.0000E+00  0.6030E-01  0.6030E-01
    -24.764  0.0000E+00  0.0000E+00  0.6030E-01  0.6030E-01
    -24.510  0.0000E+00  0.0000E+00  0.6030E-01  0.6030E-01
    -24.257  0.0000E+00  0.0000E+00  0.6030E-01  0.6030E-01
    -24.003  0.0000E+00  0.0000E+00  0.6030E-01  0.6030E-01
    -23.750  0.0000E+00  0.0000E+00  0.6030E-01  0.6030E-01
    -23.496  0.0000E+00  0.0000E+00  0.6030E-01  0.6030E-01
    -23.243  0.0000E+00  0.0000E+00  0.6030E-01  0.6030E-01
    -22.989  0.0000E+00  0.0000E+00  0.6030E-01  0.6030E-01
    -22.736  0.0000E+00  0.0000E+00  0.6030E-01  0.6030E-01
    -22.482  0.0000E+00  0.0000E+00  0.6030E-01  0.6030E-01
    -22.229  0.0000E+00  0.0000E+00  0.6030E-01  0.6030E-01
    -21.975  0.0000E+00  0.0000E+00  0.6030E-01  0.6030E-01
    -21.722  0.0000E+00  0.0000E+00  0.6030E-01  0.6030E-01
    -21.468  0.0000E+00  0.0000E+00  0.6030E-01  0.6030E-01
    -21.214  0.0000E+00  0.0000E+00  0.6030E-01  0.6030E-01
    -20.961  0.0000E+00  0.0000E+00  0.6030E-01  0.6030E-01
    -20.707  0.0000E+00  0.0000E+00  0.6030E-01  0.6030E-01
    -20.454  0.0000E+00  0.0000E+00  0.6030E-01  0.6030E-01
    -20.200  0.0000E+00  0.0000E+00  0.6030E-01  0.6030E-01
    -19.947  0.0000E+00  0.0000E+00  0.6030E-01  0.6030E-01
    -19.693  0.0000E+00  0.0000E+00  0.6030E-01  0.6030E-01
    -19.440  0.0000E+00  0.0000E+00  0.6030E-01  0.6030E-01
    -19.186  0.0000E+00  0.0000E+00  0.6030E-01  0.6030E-01
    -18.933  0.0000E+00  0.0000E+00  0.6030E-01  0.6030E-01
    -18.679  0.0000E+00  0.0000E+00  0.6030E-01  0.6030E-01
    -18.426  0.0000E+00  0.0000E+00  0.6030E-01  0.6030E-01
    -18.172  0.0000E+00  0.0000E+00  0.6030E-01  0.6030E-01
    -17.918  0.0000E+00  0.0000E+00  0.6030E-01  0.6030E-01
    -17.665  0.0000E+00  0.0000E+00  0.6030E-01  0.6030E-01
    -17.411  0.0000E+00  0.0000E+00  0.6030E-01  0.6030E-01
    -17.158  0.0000E+00  0.0000E+00  0.6030E-01  0.6030E-01
    -16.904  0.0000E+00  0.0000E+00  0.6030E-01  0.6030E-01
    -16.651  0.9787E-03  0.3555E-03  0.6064E-01  0.6039E-01
    -16.397  0.1745E-02  0.1646E-02  0.6173E-01  0.6142E-01
    -16.144  0.9433E-03  0.3998E-02  0.6397E-01  0.6381E-01
    -15.890  0.1389E-02  0.2668E-02  0.6582E-01  0.6546E-01
    -15.637  0.2747E-02  0.3130E-02  0.6769E-01  0.6729E-01
    -15.383  0.6739E-02  0.5139E-02  0.7183E-01  0.6984E-01
    -15.130  0.8758E-02  0.1103E-01  0.7693E-01  0.7514E-01
    -14.876  0.2968E-01  0.6336E-02  0.8965E-01  0.8136E-01
    -14.623  0.4174E-02  0.2275E-01  0.1005E+00  0.9850E-01
    -14.369  0.0000E+00  0.0000E+00  0.1005E+00  0.1005E+00
    -14.115  0.0000E+00  0.0000E+00  0.1005E+00  0.1005E+00
    -13.862  0.0000E+00  0.0000E+00  0.1005E+00  0.1005E+00
    -13.608  0.0000E+00  0.0000E+00  0.1005E+00  0.1005E+00
    -13.355  0.0000E+00  0.0000E+00  0.1005E+00  0.1005E+00
    -13.101  0.0000E+00  0.0000E+00  0.1005E+00  0.1005E+00
    -12.848  0.0000E+00  0.0000E+00  0.1005E+00  0.1005E+00
    -12.594  0.0000E+00  0.0000E+00  0.1005E+00  0.1005E+00
    -12.341  0.0000E+00  0.0000E+00  0.1005E+00  0.1005E+00
    -12.087  0.0000E+00  0.0000E+00  0.1005E+00  0.1005E+00
    -11.834  0.0000E+00  0.0000E+00  0.1005E+00  0.1005E+00
    -11.580  0.0000E+00  0.0000E+00  0.1005E+00  0.1005E+00
    -11.327  0.0000E+00  0.0000E+00  0.1005E+00  0.1005E+00
    -11.073  0.0000E+00  0.0000E+00  0.1005E+00  0.1005E+00
    -10.820  0.0000E+00  0.0000E+00  0.1005E+00  0.1005E+00
    -10.566  0.0000E+00  0.0000E+00  0.1005E+00  0.1005E+00
    -10.312  0.0000E+00  0.0000E+00  0.1005E+00  0.1005E+00
    -10.059  0.0000E+00  0.0000E+00  0.1005E+00  0.1005E+00
     -9.805  0.0000E+00  0.0000E+00  0.1005E+00  0.1005E+00
     -9.552  0.0000E+00  0.0000E+00  0.1005E+00  0.1005E+00
     -9.298  0.0000E+00  0.0000E+00  0.1005E+00  0.1005E+00
     -9.045  0.0000E+00  0.0000E+00  0.1005E+00  0.1005E+00
     -8.791  0.0000E+00  0.0000E+00  0.1005E+00  0.1005E+00
     -8.538  0.0000E+00  0.0000E+00  0.1005E+00  0.1005E+00
     -8.284  0.0000E+00  0.0000E+00  0.1005E+00  0.1005E+00
     -8.031  0.0000E+00  0.0000E+00  0.1005E+00  0.1005E+00
     -7.777  0.0000E+00  0.0000E+00  0.1005E+00  0.1005E+00
     -7.524  0.0000E+00  0.0000E+00  0.1005E+00  0.1005E+00
     -7.270  0.0000E+00  0.0000E+00  0.1005E+00  0.1005E+00
     -7.017  0.0000E+00  0.0000E+00  0.1005E+00  0.1005E+00
     -6.763  0.0000E+00  0.0000E+00  0.1005E+00  0.1005E+00
     -6.509  0.0000E+00  0.0000E+00  0.1005E+00  0.1005E+00
     -6.256  0.0000E+00  0.0000E+00  0.1005E+00  0.1005E+00
     -6.002  0.0000E+00  0.0000E+00  0.1005E+00  0.1005E+00
     -5.749  0.0000E+00  0.0000E+00  0.1005E+00  0.1005E+00
     -5.495  0.0000E+00  0.0000E+00  0.1005E+00  0.1005E+00
     -5.242  0.0000E+00  0.0000E+00  0.1005E+00  0.1005E+00
     -4.988  0.0000E+00  0.0000E+00  0.1005E+00  0.1005E+00
     -4.735  0.0000E+00  0.0000E+00  0.1005E+00  0.1005E+00
     -4.481  0.0000E+00  0.0000E+00  0.1005E+00  0.1005E+00
     -4.228  0.0000E+00  0.0000E+00  0.1005E+00  0.1005E+00
     -3.974  0.0000E+00  0.0000E+00  0.1005E+00  0.1005E+00
     -3.721  0.1167E-03  0.0000E+00  0.1005E+00  0.1005E+00
     -3.467  0.1048E-02  0.0000E+00  0.1011E+00  0.1005E+00
     -3.213  0.2461E-02  0.0000E+00  0.1027E+00  0.1005E+00
     -2.960  0.7035E-02  0.7889E-04  0.1075E+00  0.1005E+00
     -2.706  0.7971E-02  0.1320E-02  0.1150E+00  0.1011E+00
     -2.453  0.7007E-02  0.3297E-02  0.1214E+00  0.1024E+00
     -2.199  0.8447E-02  0.7002E-02  0.1284E+00  0.1066E+00
     -1.946  0.1336E-01  0.7417E-02  0.1385E+00  0.1139E+00
     -1.692  0.5007E-02  0.7367E-02  0.1423E+00  0.1199E+00
     -1.439  0.7654E-02  0.1446E-01  0.1484E+00  0.1302E+00
     -1.185  0.3671E-02  0.8777E-02  0.1531E+00  0.1386E+00
     -0.932  0.8815E-02  0.2878E-02  0.1593E+00  0.1422E+00
     -0.678  0.6400E-02  0.5750E-02  0.1640E+00  0.1482E+00
     -0.425  0.1097E-01  0.7083E-02  0.1687E+00  0.1534E+00
     -0.171  0.8646E-02  0.4461E-02  0.1773E+00  0.1583E+00
      0.082  0.8740E-02  0.2235E-02  0.1856E+00  0.1612E+00
      0.336  0.1124E-01  0.8160E-02  0.1940E+00  0.1663E+00
      0.590  0.7157E-02  0.1010E-01  0.2003E+00  0.1736E+00
      0.843  0.7619E-02  0.1029E-01  0.2057E+00  0.1798E+00
      1.097  0.5876E-02  0.6501E-02  0.2124E+00  0.1870E+00
      1.350  0.8060E-02  0.3561E-02  0.2176E+00  0.1908E+00
      1.604  0.7356E-02  0.6572E-02  0.2239E+00  0.1957E+00
      1.857  0.1320E-01  0.6422E-02  0.2313E+00  0.2007E+00
      2.111  0.1138E-01  0.7403E-02  0.2407E+00  0.2059E+00
      2.364  0.7843E-02  0.5113E-02  0.2486E+00  0.2121E+00
      2.618  0.1207E-01  0.5751E-02  0.2575E+00  0.2175E+00
      2.871  0.2255E-02  0.2357E-02  0.2618E+00  0.2197E+00
      3.125  0.1038E-01  0.6438E-03  0.2682E+00  0.2208E+00
      3.378  0.7786E-02  0.6887E-04  0.2762E+00  0.2211E+00
      3.632  0.2406E-02  0.0000E+00  0.2811E+00  0.2211E+00
      3.885  0.0000E+00  0.0000E+00  0.2814E+00  0.2211E+00
      4.139  0.0000E+00  0.0000E+00  0.2814E+00  0.2211E+00
      4.393  0.0000E+00  0.0000E+00  0.2814E+00  0.2211E+00
      4.646  0.0000E+00  0.0000E+00  0.2814E+00  0.2211E+00
      4.900  0.0000E+00  0.0000E+00  0.2814E+00  0.2211E+00
      5.153  0.1391E-03  0.0000E+00  0.2814E+00  0.2211E+00
      5.407  0.6286E-02  0.1720E-02  0.2861E+00  0.2216E+00
      5.660  0.8343E-02  0.1439E-01  0.2925E+00  0.2302E+00
      5.914  0.4819E-02  0.1750E-01  0.2973E+00  0.2429E+00
      6.167  0.1228E-02  0.2169E-01  0.2986E+00  0.2542E+00
      6.421  0.5787E-02  0.6296E-02  0.3018E+00  0.2632E+00
      6.674  0.8169E-02  0.1312E-01  0.3068E+00  0.2707E+00
      6.928  0.7461E-02  0.7353E-02  0.3138E+00  0.2769E+00
      7.181  0.5047E-02  0.8760E-02  0.3209E+00  0.2823E+00
      7.435  0.1902E-03  0.8860E-02  0.3216E+00  0.2901E+00
      7.689  0.0000E+00  0.5301E-02  0.3216E+00  0.2969E+00
      7.942  0.0000E+00  0.2282E-02  0.3216E+00  0.2987E+00
      8.196  0.0000E+00  0.6063E-02  0.3216E+00  0.3049E+00
      8.449  0.0000E+00  0.7844E-02  0.3216E+00  0.3122E+00
      8.703  0.0000E+00  0.3761E-02  0.3216E+00  0.3198E+00
      8.956  0.0000E+00  0.9869E-03  0.3216E+00  0.3213E+00
      9.210  0.0000E+00  0.7079E-04  0.3216E+00  0.3216E+00
      9.463  0.0000E+00  0.0000E+00  0.3216E+00  0.3216E+00
      9.717  0.0000E+00  0.0000E+00  0.3216E+00  0.3216E+00
      9.970  0.0000E+00  0.0000E+00  0.3216E+00  0.3216E+00
     10.224  0.0000E+00  0.0000E+00  0.3216E+00  0.3216E+00
     10.477  0.0000E+00  0.0000E+00  0.3216E+00  0.3216E+00
     10.731  0.0000E+00  0.0000E+00  0.3216E+00  0.3216E+00
     10.984  0.0000E+00  0.0000E+00  0.3216E+00  0.3216E+00
     11.238  0.0000E+00  0.0000E+00  0.3216E+00  0.3216E+00
     11.492  0.0000E+00  0.0000E+00  0.3216E+00  0.3216E+00
     11.745  0.0000E+00  0.0000E+00  0.3216E+00  0.3216E+00
     11.999  0.7076E-04  0.0000E+00  0.3216E+00  0.3216E+00
     12.252  0.2138E-03  0.0000E+00  0.3217E+00  0.3216E+00
     12.506  0.2839E-03  0.2825E-07  0.3218E+00  0.3216E+00
     12.759  0.1456E-03  0.1416E-03  0.3220E+00  0.3217E+00
     13.013  0.4247E-03  0.2808E-03  0.3222E+00  0.3218E+00
     13.266  0.1660E-03  0.1141E-03  0.3224E+00  0.3220E+00
     13.520  0.9910E-03  0.2897E-03  0.3230E+00  0.3222E+00
     13.773  0.1476E-03  0.4483E-03  0.3233E+00  0.3224E+00
     14.027  0.1120E-02  0.7079E-03  0.3238E+00  0.3230E+00
     14.280  0.2831E-03  0.2832E-03  0.3243E+00  0.3233E+00
     14.534  0.2123E-02  0.1062E-02  0.3251E+00  0.3239E+00
     14.787  0.6923E-04  0.6809E-03  0.3257E+00  0.3244E+00
     15.041  0.2047E-02  0.1416E-02  0.3268E+00  0.3252E+00
     15.295  0.1982E-02  0.5784E-03  0.3279E+00  0.3258E+00
     15.548  0.2365E-02  0.1050E-02  0.3292E+00  0.3269E+00
     15.802  0.1831E-02  0.1079E-02  0.3308E+00  0.3278E+00
     16.055  0.1133E-02  0.1717E-02  0.3329E+00  0.3292E+00
     16.309  0.4123E-02  0.1905E-02  0.3356E+00  0.3310E+00
     16.562  0.3297E-02  0.2499E-02  0.3376E+00  0.3331E+00
     16.816  0.1692E-02  0.2557E-02  0.3403E+00  0.3356E+00
     17.069  0.2196E-02  0.3632E-02  0.3424E+00  0.3382E+00
     17.323  0.8494E-03  0.1738E-02  0.3444E+00  0.3402E+00
     17.576  0.1201E-02  0.1115E-02  0.3458E+00  0.3417E+00
     17.830  0.3470E-02  0.2669E-02  0.3478E+00  0.3442E+00
     18.083  0.4359E-02  0.2553E-02  0.3506E+00  0.3452E+00
     18.337  0.4124E-02  0.2839E-02  0.3536E+00  0.3466E+00
     18.591  0.1877E-02  0.2774E-02  0.3559E+00  0.3495E+00
     18.844  0.2500E-02  0.4437E-02  0.3576E+00  0.3520E+00
     19.098  0.2976E-02  0.3251E-02  0.3598E+00  0.3548E+00
     19.351  0.1927E-02  0.1274E-02  0.3613E+00  0.3566E+00
     19.605  0.2831E-03  0.2587E-02  0.3618E+00  0.3587E+00
     19.858  0.0000E+00  0.2208E-02  0.3618E+00  0.3605E+00
     20.112  0.0000E+00  0.5005E-03  0.3618E+00  0.3615E+00
     20.365  0.0000E+00  0.0000E+00  0.3618E+00  0.3618E+00
     20.619  0.0000E+00  0.0000E+00  0.3618E+00  0.3618E+00
     20.872  0.0000E+00  0.0000E+00  0.3618E+00  0.3618E+00
     21.126  0.0000E+00  0.0000E+00  0.3618E+00  0.3618E+00
     21.379  0.0000E+00  0.0000E+00  0.3618E+00  0.3618E+00
     21.633  0.0000E+00  0.0000E+00  0.3618E+00  0.3618E+00
     21.886  0.0000E+00  0.0000E+00  0.3618E+00  0.3618E+00
     22.140  0.0000E+00  0.0000E+00  0.3618E+00  0.3618E+00
     22.394  0.0000E+00  0.0000E+00  0.3618E+00  0.3618E+00
     22.647  0.0000E+00  0.0000E+00  0.3618E+00  0.3618E+00
     22.901  0.0000E+00  0.0000E+00  0.3618E+00  0.3618E+00
     23.154  0.0000E+00  0.0000E+00  0.3618E+00  0.3618E+00
     23.408  0.0000E+00  0.0000E+00  0.3618E+00  0.3618E+00
     23.661  0.0000E+00  0.0000E+00  0.3618E+00  0.3618E+00
     23.66119911    -52.39921918  301      3.75872299      1.00000000
    -52.399  0.0000E+00  0.0000E+00  0.0000E+00  0.0000E+00  0.0000E+00  0.0000E+00  0.0000E+00  0.0000E+00  0.0000E+00  0.0000E+00  0.0000E+00  0.0000E+00  0.0000E+00  0.0000E+00  0.0000E+00  0.0000E+00  0.0000E+00  0.0000E+00
    -52.146  0.0000E+00  0.0000E+00  0.0000E+00  0.0000E+00  0.0000E+00  0.0000E+00  0.0000E+00  0.0000E+00  0.0000E+00  0.0000E+00  0.0000E+00  0.0000E+00  0.0000E+00  0.0000E+00  0.0000E+00  0.0000E+00  0.0000E+00  0.0000E+00
    -51.892  0.0000E+00  0.0000E+00  0.0000E+00  0.0000E+00  0.0000E+00  0.0000E+00  0.0000E+00  0.0000E+00  0.0000E+00  0.0000E+00  0.0000E+00  0.0000E+00  0.0000E+00  0.0000E+00  0.0000E+00  0.0000E+00  0.0000E+00  0.0000E+00
    -51.639  0.0000E+00  0.0000E+00  0.0000E+00  0.0000E+00  0.0000E+00  0.0000E+00  0.0000E+00  0.0000E+00  0.0000E+00  0.0000E+00  0.0000E+00  0.0000E+00  0.0000E+00  0.0000E+00  0.0000E+00  0.0000E+00  0.0000E+00  0.0000E+00
    -51.385  0.0000E+00  0.0000E+00  0.0000E+00  0.0000E+00  0.0000E+00  0.0000E+00  0.0000E+00  0.0000E+00  0.0000E+00  0.0000E+00  0.0000E+00  0.0000E+00  0.0000E+00  0.0000E+00  0.0000E+00  0.0000E+00  0.0000E+00  0.0000E+00
    -51.132  0.0000E+00  0.0000E+00  0.0000E+00  0.0000E+00  0.0000E+00  0.0000E+00  0.0000E+00  0.0000E+00  0.0000E+00  0.0000E+00  0.0000E+00  0.0000E+00  0.0000E+00  0.0000E+00  0.0000E+00  0.0000E+00  0.0000E+00  0.0000E+00
    -50.878  0.0000E+00  0.0000E+00  0.0000E+00  0.0000E+00  0.0000E+00  0.0000E+00  0.0000E+00  0.0000E+00  0.0000E+00  0.0000E+00  0.0000E+00  0.0000E+00  0.0000E+00  0.0000E+00  0.0000E+00  0.0000E+00  0.0000E+00  0.0000E+00
    -50.624  0.0000E+00  0.0000E+00  0.0000E+00  0.0000E+00  0.0000E+00  0.0000E+00  0.0000E+00  0.0000E+00  0.0000E+00  0.0000E+00  0.0000E+00  0.0000E+00  0.0000E+00  0.0000E+00  0.0000E+00  0.0000E+00  0.0000E+00  0.0000E+00
    -50.371  0.0000E+00  0.0000E+00  0.0000E+00  0.0000E+00  0.0000E+00  0.0000E+00  0.0000E+00  0.0000E+00  0.0000E+00  0.0000E+00  0.0000E+00  0.0000E+00  0.0000E+00  0.0000E+00  0.0000E+00  0.0000E+00  0.0000E+00  0.0000E+00
    -50.117  0.0000E+00  0.0000E+00  0.0000E+00  0.0000E+00  0.0000E+00  0.0000E+00  0.0000E+00  0.0000E+00  0.0000E+00  0.0000E+00  0.0000E+00  0.0000E+00  0.0000E+00  0.0000E+00  0.0000E+00  0.0000E+00  0.0000E+00  0.0000E+00
    -49.864  0.0000E+00  0.0000E+00  0.0000E+00  0.0000E+00  0.0000E+00  0.0000E+00  0.0000E+00  0.0000E+00  0.0000E+00  0.0000E+00  0.0000E+00  0.0000E+00  0.0000E+00  0.0000E+00  0.0000E+00  0.0000E+00  0.0000E+00  0.0000E+00
    -49.610  0.0000E+00  0.0000E+00  0.0000E+00  0.0000E+00  0.0000E+00  0.0000E+00  0.0000E+00  0.0000E+00  0.0000E+00  0.0000E+00  0.0000E+00  0.0000E+00  0.0000E+00  0.0000E+00  0.0000E+00  0.0000E+00  0.0000E+00  0.0000E+00
    -49.357  0.0000E+00  0.0000E+00  0.0000E+00  0.0000E+00  0.0000E+00  0.0000E+00  0.0000E+00  0.0000E+00  0.0000E+00  0.0000E+00  0.0000E+00  0.0000E+00  0.0000E+00  0.0000E+00  0.0000E+00  0.0000E+00  0.0000E+00  0.0000E+00
    -49.103  0.0000E+00  0.0000E+00  0.0000E+00  0.0000E+00  0.0000E+00  0.0000E+00  0.0000E+00  0.0000E+00  0.0000E+00  0.0000E+00  0.0000E+00  0.0000E+00  0.0000E+00  0.0000E+00  0.0000E+00  0.0000E+00  0.0000E+00  0.0000E+00
    -48.850  0.2750E-04  0.0000E+00  0.5504E-02  0.0000E+00  0.7276E+00  0.0000E+00  0.1874E+01  0.0000E+00  0.5322E-06  0.0000E+00  0.1496E-05  0.0000E+00  0.1338E-04  0.0000E+00  0.4657E-05  0.0000E+00  0.1777E-04  0.0000E+00
    -48.596  0.0000E+00  0.0000E+00  0.0000E+00  0.0000E+00  0.0000E+00  0.0000E+00  0.0000E+00  0.0000E+00  0.0000E+00  0.0000E+00  0.0000E+00  0.0000E+00  0.0000E+00  0.0000E+00  0.0000E+00  0.0000E+00  0.0000E+00  0.0000E+00
    -48.343  0.0000E+00  0.0000E+00  0.0000E+00  0.0000E+00  0.0000E+00  0.0000E+00  0.0000E+00  0.0000E+00  0.0000E+00  0.0000E+00  0.0000E+00  0.0000E+00  0.0000E+00  0.0000E+00  0.0000E+00  0.0000E+00  0.0000E+00  0.0000E+00
    -48.089  0.0000E+00  0.0000E+00  0.0000E+00  0.0000E+00  0.0000E+00  0.0000E+00  0.0000E+00  0.0000E+00  0.0000E+00  0.0000E+00  0.0000E+00  0.0000E+00  0.0000E+00  0.0000E+00  0.0000E+00  0.0000E+00  0.0000E+00  0.0000E+00
    -47.836  0.0000E+00  0.0000E+00  0.0000E+00  0.0000E+00  0.0000E+00  0.0000E+00  0.0000E+00  0.0000E+00  0.0000E+00  0.0000E+00  0.0000E+00  0.0000E+00  0.0000E+00  0.0000E+00  0.0000E+00  0.0000E+00  0.0000E+00  0.0000E+00
    -47.582  0.0000E+00  0.0000E+00  0.0000E+00  0.0000E+00  0.0000E+00  0.0000E+00  0.0000E+00  0.0000E+00  0.0000E+00  0.0000E+00  0.0000E+00  0.0000E+00  0.0000E+00  0.0000E+00  0.0000E+00  0.0000E+00  0.0000E+00  0.0000E+00
    -47.329  0.0000E+00  0.0000E+00  0.0000E+00  0.0000E+00  0.0000E+00  0.0000E+00  0.0000E+00  0.0000E+00  0.0000E+00  0.0000E+00  0.0000E+00  0.0000E+00  0.0000E+00  0.0000E+00  0.0000E+00  0.0000E+00  0.0000E+00  0.0000E+00
    -47.075  0.0000E+00  0.0000E+00  0.0000E+00  0.0000E+00  0.0000E+00  0.0000E+00  0.0000E+00  0.0000E+00  0.0000E+00  0.0000E+00  0.0000E+00  0.0000E+00  0.0000E+00  0.0000E+00  0.0000E+00  0.0000E+00  0.0000E+00  0.0000E+00
    -46.821  0.0000E+00  0.0000E+00  0.0000E+00  0.0000E+00  0.0000E+00  0.0000E+00  0.0000E+00  0.0000E+00  0.0000E+00  0.0000E+00  0.0000E+00  0.0000E+00  0.0000E+00  0.0000E+00  0.0000E+00  0.0000E+00  0.0000E+00  0.0000E+00
    -46.568  0.0000E+00  0.0000E+00  0.0000E+00  0.0000E+00  0.0000E+00  0.0000E+00  0.0000E+00  0.0000E+00  0.0000E+00  0.0000E+00  0.0000E+00  0.0000E+00  0.0000E+00  0.0000E+00  0.0000E+00  0.0000E+00  0.0000E+00  0.0000E+00
    -46.314  0.0000E+00  0.0000E+00  0.0000E+00  0.0000E+00  0.0000E+00  0.0000E+00  0.0000E+00  0.0000E+00  0.0000E+00  0.0000E+00  0.0000E+00  0.0000E+00  0.0000E+00  0.0000E+00  0.0000E+00  0.0000E+00  0.0000E+00  0.0000E+00
    -46.061  0.0000E+00  0.0000E+00  0.0000E+00  0.0000E+00  0.0000E+00  0.0000E+00  0.0000E+00  0.0000E+00  0.0000E+00  0.0000E+00  0.0000E+00  0.0000E+00  0.0000E+00  0.0000E+00  0.0000E+00  0.0000E+00  0.0000E+00  0.0000E+00
    -45.807  0.0000E+00  0.0000E+00  0.0000E+00  0.0000E+00  0.0000E+00  0.0000E+00  0.0000E+00  0.0000E+00  0.0000E+00  0.0000E+00  0.0000E+00  0.0000E+00  0.0000E+00  0.0000E+00  0.0000E+00  0.0000E+00  0.0000E+00  0.0000E+00
    -45.554  0.0000E+00  0.0000E+00  0.0000E+00  0.0000E+00  0.0000E+00  0.0000E+00  0.0000E+00  0.0000E+00  0.0000E+00  0.0000E+00  0.0000E+00  0.0000E+00  0.0000E+00  0.0000E+00  0.0000E+00  0.0000E+00  0.0000E+00  0.0000E+00
    -45.300  0.0000E+00  0.0000E+00  0.0000E+00  0.0000E+00  0.0000E+00  0.0000E+00  0.0000E+00  0.0000E+00  0.0000E+00  0.0000E+00  0.0000E+00  0.0000E+00  0.0000E+00  0.0000E+00  0.0000E+00  0.0000E+00  0.0000E+00  0.0000E+00
    -45.047  0.0000E+00  0.0000E+00  0.0000E+00  0.0000E+00  0.0000E+00  0.0000E+00  0.0000E+00  0.0000E+00  0.0000E+00  0.0000E+00  0.0000E+00  0.0000E+00  0.0000E+00  0.0000E+00  0.0000E+00  0.0000E+00  0.0000E+00  0.0000E+00
    -44.793  0.0000E+00  0.3128E-04  0.0000E+00  0.5029E-02  0.0000E+00  0.5754E+00  0.0000E+00  0.1386E+01  0.0000E+00  0.7577E-06  0.0000E+00  0.1467E-05  0.0000E+00  0.1315E-04  0.0000E+00  0.4438E-05  0.0000E+00  0.1829E-04
    -44.540  0.0000E+00  0.4867E-06  0.0000E+00  0.3066E+01  0.0000E+00  0.2946E-01  0.0000E+00  0.1278E-02  0.0000E+00  0.2119E-05  0.0000E+00  0.2539E-05  0.0000E+00  0.1025E-06  0.0000E+00  0.9303E-06  0.0000E+00  0.1003E-05
    -44.286  0.0000E+00  0.0000E+00  0.0000E+00  0.0000E+00  0.0000E+00  0.0000E+00  0.0000E+00  0.0000E+00  0.0000E+00  0.0000E+00  0.0000E+00  0.0000E+00  0.0000E+00  0.0000E+00  0.0000E+00  0.0000E+00  0.0000E+00  0.0000E+00
    -44.033  0.0000E+00  0.0000E+00  0.0000E+00  0.0000E+00  0.0000E+00  0.0000E+00  0.0000E+00  0.0000E+00  0.0000E+00  0.0000E+00  0.0000E+00  0.0000E+00  0.0000E+00  0.0000E+00  0.0000E+00  0.0000E+00  0.0000E+00  0.0000E+00
    -43.779  0.0000E+00  0.0000E+00  0.0000E+00  0.0000E+00  0.0000E+00  0.0000E+00  0.0000E+00  0.0000E+00  0.0000E+00  0.0000E+00  0.0000E+00  0.0000E+00  0.0000E+00  0.0000E+00  0.0000E+00  0.0000E+00  0.0000E+00  0.0000E+00
    -43.526  0.0000E+00  0.0000E+00  0.0000E+00  0.0000E+00  0.0000E+00  0.0000E+00  0.0000E+00  0.0000E+00  0.0000E+00  0.0000E+00  0.0000E+00  0.0000E+00  0.0000E+00  0.0000E+00  0.0000E+00  0.0000E+00  0.0000E+00  0.0000E+00
    -43.272  0.0000E+00  0.0000E+00  0.0000E+00  0.0000E+00  0.0000E+00  0.0000E+00  0.0000E+00  0.0000E+00  0.0000E+00  0.0000E+00  0.0000E+00  0.0000E+00  0.0000E+00  0.0000E+00  0.0000E+00  0.0000E+00  0.0000E+00  0.0000E+00
    -43.018  0.0000E+00  0.0000E+00  0.0000E+00  0.0000E+00  0.0000E+00  0.0000E+00  0.0000E+00  0.0000E+00  0.0000E+00  0.0000E+00  0.0000E+00  0.0000E+00  0.0000E+00  0.0000E+00  0.0000E+00  0.0000E+00  0.0000E+00  0.0000E+00
    -42.765  0.0000E+00  0.0000E+00  0.0000E+00  0.0000E+00  0.0000E+00  0.0000E+00  0.0000E+00  0.0000E+00  0.0000E+00  0.0000E+00  0.0000E+00  0.0000E+00  0.0000E+00  0.0000E+00  0.0000E+00  0.0000E+00  0.0000E+00  0.0000E+00
    -42.511  0.0000E+00  0.0000E+00  0.0000E+00  0.0000E+00  0.0000E+00  0.0000E+00  0.0000E+00  0.0000E+00  0.0000E+00  0.0000E+00  0.0000E+00  0.0000E+00  0.0000E+00  0.0000E+00  0.0000E+00  0.0000E+00  0.0000E+00  0.0000E+00
    -42.258  0.0000E+00  0.0000E+00  0.0000E+00  0.0000E+00  0.0000E+00  0.0000E+00  0.0000E+00  0.0000E+00  0.0000E+00  0.0000E+00  0.0000E+00  0.0000E+00  0.0000E+00  0.0000E+00  0.0000E+00  0.0000E+00  0.0000E+00  0.0000E+00
    -42.004  0.0000E+00  0.0000E+00  0.0000E+00  0.0000E+00  0.0000E+00  0.0000E+00  0.0000E+00  0.0000E+00  0.0000E+00  0.0000E+00  0.0000E+00  0.0000E+00  0.0000E+00  0.0000E+00  0.0000E+00  0.0000E+00  0.0000E+00  0.0000E+00
    -41.751  0.0000E+00  0.0000E+00  0.0000E+00  0.0000E+00  0.0000E+00  0.0000E+00  0.0000E+00  0.0000E+00  0.0000E+00  0.0000E+00  0.0000E+00  0.0000E+00  0.0000E+00  0.0000E+00  0.0000E+00  0.0000E+00  0.0000E+00  0.0000E+00
    -41.497  0.0000E+00  0.0000E+00  0.0000E+00  0.0000E+00  0.0000E+00  0.0000E+00  0.0000E+00  0.0000E+00  0.0000E+00  0.0000E+00  0.0000E+00  0.0000E+00  0.0000E+00  0.0000E+00  0.0000E+00  0.0000E+00  0.0000E+00  0.0000E+00
    -41.244  0.0000E+00  0.0000E+00  0.0000E+00  0.0000E+00  0.0000E+00  0.0000E+00  0.0000E+00  0.0000E+00  0.0000E+00  0.0000E+00  0.0000E+00  0.0000E+00  0.0000E+00  0.0000E+00  0.0000E+00  0.0000E+00  0.0000E+00  0.0000E+00
    -40.990  0.0000E+00  0.0000E+00  0.0000E+00  0.0000E+00  0.0000E+00  0.0000E+00  0.0000E+00  0.0000E+00  0.0000E+00  0.0000E+00  0.0000E+00  0.0000E+00  0.0000E+00  0.0000E+00  0.0000E+00  0.0000E+00  0.0000E+00  0.0000E+00
    -40.737  0.0000E+00  0.0000E+00  0.0000E+00  0.0000E+00  0.0000E+00  0.0000E+00  0.0000E+00  0.0000E+00  0.0000E+00  0.0000E+00  0.0000E+00  0.0000E+00  0.0000E+00  0.0000E+00  0.0000E+00  0.0000E+00  0.0000E+00  0.0000E+00
    -40.483  0.0000E+00  0.0000E+00  0.0000E+00  0.0000E+00  0.0000E+00  0.0000E+00  0.0000E+00  0.0000E+00  0.0000E+00  0.0000E+00  0.0000E+00  0.0000E+00  0.0000E+00  0.0000E+00  0.0000E+00  0.0000E+00  0.0000E+00  0.0000E+00
    -40.230  0.0000E+00  0.0000E+00  0.0000E+00  0.0000E+00  0.0000E+00  0.0000E+00  0.0000E+00  0.0000E+00  0.0000E+00  0.0000E+00  0.0000E+00  0.0000E+00  0.0000E+00  0.0000E+00  0.0000E+00  0.0000E+00  0.0000E+00  0.0000E+00
    -39.976  0.0000E+00  0.0000E+00  0.0000E+00  0.0000E+00  0.0000E+00  0.0000E+00  0.0000E+00  0.0000E+00  0.0000E+00  0.0000E+00  0.0000E+00  0.0000E+00  0.0000E+00  0.0000E+00  0.0000E+00  0.0000E+00  0.0000E+00  0.0000E+00
    -39.722  0.0000E+00  0.0000E+00  0.0000E+00  0.0000E+00  0.0000E+00  0.0000E+00  0.0000E+00  0.0000E+00  0.0000E+00  0.0000E+00  0.0000E+00  0.0000E+00  0.0000E+00  0.0000E+00  0.0000E+00  0.0000E+00  0.0000E+00  0.0000E+00