   12   12  199    2
  0.1032503E+02  0.2875312E-09  0.4651682E-09  0.9263552E-09  0.5000000E-15
  1.000000000000000E-004
  CAR 
 unknown system                          
    100    142     72
 
  0.0000000E+00  0.0000000E+00  0.0000000E+00  0.3571429E-02
    1      -48.865505    -44.812389   1.000000   1.000000
    2      -48.853865    -44.796048   1.000000   1.000000
    3      -48.837079    -44.795358   1.000000   1.000000
    4      -48.833352    -44.790308   1.000000   1.000000
    5      -48.820386    -44.774950   1.000000   1.000000
    6      -48.816656    -44.769895   1.000000   1.000000
    7      -48.800802    -44.716939   1.000000   1.000000
    8      -48.797004    -44.699972   1.000000   1.000000
    9      -48.785240    -44.638731   1.000000   1.000000
   10      -48.777175    -44.621282   1.000000   1.000000
   11      -48.775428    -44.618746   1.000000   1.000000
   12      -48.771293    -44.601442   1.000000   1.000000
   13      -16.812031    -16.729262   1.000000   1.000000
   14      -16.156131    -16.127080   1.000000   1.000000
   15      -15.926727    -15.757601   1.000000   1.000000
   16      -15.114762    -15.007298   1.000000   1.000000
   17      -14.829058    -14.706762   1.000000   1.000000
   18      -14.774623    -14.639406   1.000000   1.000000
   19      -14.675117    -14.579302   1.000000   1.000000
   20      -14.622630    -14.512388   1.000000   1.000000
   21       -3.744943     -2.989061   1.000000   1.000000
   22       -3.147850     -2.288075   1.000000   1.000000
   23       -3.021264     -2.027847   1.000000   1.000000
   24       -2.848785     -1.807874   1.000000   1.000000
   25       -2.373970     -1.386507   1.000000   1.000000
   26       -2.055394     -1.285405   1.000000   1.000000
   27       -2.011745     -1.162097   1.000000   1.000000
   28       -1.907158     -1.125973   1.000000   1.000000
   29       -1.872792     -0.826934   1.000000   1.000000
   30       -1.684411     -0.781932   1.000000   1.000000
   31       -1.513222     -0.765556   1.000000   1.000000
   32       -0.832102     -0.134913   1.000000   1.000000
   33       -0.747738      0.119202   1.000000   1.000000
   34       -0.320043      0.782401   1.000000   1.000000
   35        0.310979      0.813381   1.000000   1.000000
   36        0.317125      0.953689   1.000000   1.000000
   37        0.388649      1.139268   1.000000   1.000000
   38        0.416179      1.518018   1.000000   1.000000
   39        0.553773      1.765783   1.000000   1.000000
   40        0.748841      2.435979   1.000000   1.000000
   41        0.899164      2.676981   1.000000   1.000000
   42        1.014197      2.737304   1.000000   1.000000
   43        1.019393      3.110430   1.000000   1.000000
   44        1.842425      3.364800   1.000000   1.000000
   45        1.904168      5.278092   1.000000   0.000000
   46        2.196424      5.345898   1.000000   0.000000
   47        2.318766      5.412696   1.000000   0.000000
   48        2.342605      5.793149   1.000000   0.000000
   49        2.376486      5.801187   1.000000   0.000000
   50        2.488066      5.859283   1.000000   0.000000
   51        2.495781      6.054006   1.000000   0.000000
   52        2.638954      6.085085   1.000000   0.000000
   53        3.087695      6.225416   1.000000   0.000000
   54        3.159263      6.417966   1.000000   0.000000
   55        3.253905      6.919074   1.000000   0.000000
   56        3.417181      7.021667   1.000000   0.000000
   57        5.173574      7.187027   0.000000   0.000000
   58        5.613240      7.545877   0.000000   0.000000
   59        6.702150      8.108082   0.000000   0.000000
   60        6.812436      8.234624   0.000000   0.000000
   61        6.817496      8.510547   0.000000   0.000000
   62        6.944409      8.546884   0.000000   0.000000
   63        6.944904      8.696082   0.000000   0.000000
   64        7.431531      9.155683   0.000000   0.000000
   65       11.974612     12.529383   0.000000   0.000000
   66       14.026182     14.493672   0.000000   0.000000
   67       14.689618     15.158882   0.000000   0.000000
   68       15.572706     16.229413   0.000000   0.000000
   69       15.940959     16.493740   0.000000   0.000000
   70       17.166160     17.984887   0.000000   0.000000
   71       17.385996     18.182437   0.000000   0.000000
   72       18.288096     18.743229   0.000000   0.000000
 
  0.1000000E+00  0.2419359E-22  0.0000000E+00  0.7142857E-02
    1      -48.863285    -44.810505   1.000000   1.000000
    2      -48.854777    -44.808432   1.000000   1.000000
    3      -48.847492    -44.804717   1.000000   1.000000
    4      -48.844918    -44.803222   1.000000   1.000000
    5      -48.827534    -44.781297   1.000000   1.000000
    6      -48.826474    -44.777850   1.000000   1.000000
    7      -48.798832    -44.715581   1.000000   1.000000
    8      -48.795337    -44.700515   1.000000   1.000000
    9      -48.783853    -44.636141   1.000000   1.000000
   10      -48.776469    -44.619435   1.000000   1.000000
   11      -48.775892    -44.617128   1.000000   1.000000
   12      -48.770688    -44.600617   1.000000   1.000000
   13      -16.715116    -16.632224   1.000000   1.000000
   14      -16.083407    -16.056046   1.000000   1.000000
   15      -15.854830    -15.683432   1.000000   1.000000
   16      -15.081185    -14.977165   1.000000   1.000000
   17      -14.840398    -14.716309   1.000000   1.000000
   18      -14.786087    -14.665372   1.000000   1.000000
   19      -14.700205    -14.588398   1.000000   1.000000
   20      -14.645261    -14.530702   1.000000   1.000000
   21       -3.602471     -2.866044   1.000000   1.000000
   22       -3.026353     -2.191290   1.000000   1.000000
   23       -2.911397     -1.946970   1.000000   1.000000
   24       -2.740626     -1.722201   1.000000   1.000000
   25       -2.293596     -1.405712   1.000000   1.000000
   26       -2.260114     -1.318248   1.000000   1.000000
   27       -2.163714     -1.316292   1.000000   1.000000
   28       -1.980329     -1.252470   1.000000   1.000000
   29       -1.634132     -0.836622   1.000000   1.000000
   30       -1.585611     -0.699832   1.000000   1.000000
   31       -1.545572     -0.551148   1.000000   1.000000
   32       -0.825637     -0.091068   1.000000   1.000000
   33       -0.758050      0.172941   1.000000   1.000000
   34       -0.459157      0.451750   1.000000   1.000000
   35        0.014616      0.827552   1.000000   1.000000
   36        0.088391      0.863916   1.000000   1.000000
   37        0.426018      0.937014   1.000000   1.000000
   38        0.553012      1.339113   1.000000   1.000000
   39        0.603622      1.801404   1.000000   1.000000
   40        0.629856      1.996380   1.000000   1.000000
   41        0.735368      2.492842   1.000000   1.000000
   42        0.858964      2.805185   1.000000   1.000000
   43        0.947882      3.063122   1.000000   1.000000
   44        1.757552      3.226629   1.000000   1.000000
   45        1.778289      5.394157   1.000000   0.000000
   46        2.096341      5.404087   1.000000   0.000000
   47        2.216929      5.501027   1.000000   0.000000
   48        2.397925      5.910214   1.000000   0.000000
   49        2.493169      5.945989   1.000000   0.000000
   50        2.542743      6.015566   1.000000   0.000000
   51        2.634793      6.018744   1.000000   0.000000
   52        2.657685      6.222743   1.000000   0.000000
   53        3.104791      6.238660   1.000000   0.000000
   54        3.209068      6.400943   1.000000   0.000000
   55        3.300966      6.977806   1.000000   0.000000
   56        3.430261      7.063147   1.000000   0.000000
   57        5.242714      7.144884   0.000000   0.000000
   58        5.656943      7.458065   0.000000   0.000000
   59        6.481863      8.005001   0.000000   0.000000
   60        6.551556      8.015728   0.000000   0.000000
   61        6.679120      8.340981   0.000000   0.000000
   62        6.723667      8.361909   0.000000   0.000000
   63        6.884226      8.656738   0.000000   0.000000
   64        7.374165      9.058034   0.000000   0.000000
   65       12.329690     12.854823   0.000000   0.000000
   66       14.324831     14.781283   0.000000   0.000000
   67       14.944150     15.402440   0.000000   0.000000
   68       15.985336     16.642585   0.000000   0.000000
   69       16.358298     16.915018   0.000000   0.000000
   70       17.469215     18.269048   0.000000   0.000000
   71       17.719484     18.492438   0.000000   0.000000
   72       18.378055     18.801012   0.000000   0.000000
 
  0.2000000E+00  0.1542663E-21  0.1654361E-23  0.7142857E-02
    1      -48.874076    -44.842014   1.000000   1.000000
    2      -48.873283    -44.840656   1.000000   1.000000
    3      -48.870872    -44.835026   1.000000   1.000000
    4      -48.866779    -44.827702   1.000000   1.000000
    5      -48.842273    -44.788273   1.000000   1.000000
    6      -48.831906    -44.771816   1.000000   1.000000
    7      -48.793769    -44.714204   1.000000   1.000000
    8      -48.792564    -44.703197   1.000000   1.000000
    9      -48.780419    -44.629001   1.000000   1.000000
   10      -48.777907    -44.614611   1.000000   1.000000
   11      -48.775239    -44.612846   1.000000   1.000000
   12      -48.769334    -44.598709   1.000000   1.000000
   13      -16.442710    -16.360246   1.000000   1.000000
   14      -15.886090    -15.863777   1.000000   1.000000
   15      -15.660758    -15.482277   1.000000   1.000000
   16      -15.005611    -14.915802   1.000000   1.000000
   17      -14.868954    -14.739734   1.000000   1.000000
   18      -14.816227    -14.738535   1.000000   1.000000
   19      -14.769754    -14.612243   1.000000   1.000000
   20      -14.706332    -14.575660   1.000000   1.000000
   21       -3.208455     -2.531820   1.000000   1.000000
   22       -2.702104     -1.956625   1.000000   1.000000
   23       -2.620089     -1.746391   1.000000   1.000000
   24       -2.495220     -1.566368   1.000000   1.000000
   25       -2.431674     -1.527382   1.000000   1.000000
   26       -2.374952     -1.450479   1.000000   1.000000
   27       -2.105058     -1.401296   1.000000   1.000000
   28       -2.094941     -1.175890   1.000000   1.000000
   29       -1.679884     -0.835193   1.000000   1.000000
   30       -1.401351     -0.571288   1.000000   1.000000
   31       -1.276314     -0.409177   1.000000   1.000000
   32       -1.244813     -0.335992   1.000000   1.000000
   33       -1.045837     -0.172461   1.000000   1.000000
   34       -0.608495     -0.082291   1.000000   1.000000
   35       -0.176020      0.757567   1.000000   1.000000
   36       -0.099594      0.760810   1.000000   1.000000
   37        0.004731      1.036267   1.000000   1.000000
   38        0.245081      1.145878   1.000000   1.000000
   39        0.416681      1.266572   1.000000   1.000000
   40        0.666447      1.645539   1.000000   1.000000
   41        0.717721      2.207540   1.000000   1.000000
   42        0.788844      2.662532   1.000000   1.000000
   43        0.865710      2.858388   1.000000   1.000000
   44        1.501763      2.891754   1.000000   1.000000
   45        1.872671      5.492060   1.000000   0.000000
   46        1.894173      5.682707   1.000000   0.000000
   47        2.141012      5.708040   1.000000   0.000000
   48        2.251314      5.961571   1.000000   0.000000
   49        2.450530      6.053088   1.000000   0.000000
   50        2.647146      6.111309   1.000000   0.000000
   51        2.678162      6.154873   1.000000   0.000000
   52        2.757889      6.240263   1.000000   0.000000
   53        3.054813      6.492995   1.000000   0.000000
   54        3.280392      6.503146   1.000000   0.000000
   55        3.413732      6.983765   1.000000   0.000000
   56        3.415686      7.088824   1.000000   0.000000
   57        5.391947      7.196642   0.000000   0.000000
   58        5.488344      7.245722   0.000000   0.000000
   59        5.942592      7.594273   0.000000   0.000000
   60        6.167067      8.004712   0.000000   0.000000
   61        6.321583      8.035034   0.000000   0.000000
   62        6.534055      8.057306   0.000000   0.000000
   63        6.910552      8.549057   0.000000   0.000000
   64        7.144938      8.758028   0.000000   0.000000
   65       13.254255     13.718884   0.000000   0.000000
   66       15.036285     15.461606   0.000000   0.000000
   67       15.548118     15.978800   0.000000   0.000000
   68       17.009608     17.668705   0.000000   0.000000
   69       17.381355     17.949993   0.000000   0.000000
   70       18.251472     18.950683   0.000000   0.000000
   71       18.519280     19.015634   0.000000   0.000000
   72       18.550736     19.274491   0.000000   0.000000
 
  0.3000000E+00  0.4611095E-22  0.3308722E-23  0.7142857E-02
    1      -48.906745    -44.883256   1.000000   1.000000
    2      -48.905979    -44.882427   1.000000   1.000000
    3      -48.902761    -44.878039   1.000000   1.000000
    4      -48.896841    -44.870342   1.000000   1.000000
    5      -48.834347    -44.773260   1.000000   1.000000
    6      -48.823897    -44.758918   1.000000   1.000000
    7      -48.791780    -44.715713   1.000000   1.000000
    8      -48.789238    -44.709585   1.000000   1.000000
    9      -48.780448    -44.619170   1.000000   1.000000
   10      -48.776254    -44.608614   1.000000   1.000000
   11      -48.773740    -44.607468   1.000000   1.000000
   12      -48.768284    -44.597167   1.000000   1.000000
   13      -16.049115    -15.969790   1.000000   1.000000
   14      -15.622194    -15.606588   1.000000   1.000000
   15      -15.405810    -15.213963   1.000000   1.000000
   16      -14.957351    -14.899242   1.000000   1.000000
   17      -14.900179    -14.847096   1.000000   1.000000
   18      -14.869022    -14.762522   1.000000   1.000000
   19      -14.854778    -14.643889   1.000000   1.000000
   20      -14.786180    -14.622070   1.000000   1.000000
   21       -2.708233     -2.101729   1.000000   1.000000
   22       -2.593220     -1.712142   1.000000   1.000000
   23       -2.505752     -1.663265   1.000000   1.000000
   24       -2.478071     -1.607447   1.000000   1.000000
   25       -2.332054     -1.538898   1.000000   1.000000
   26       -2.283178     -1.449258   1.000000   1.000000
   27       -2.265922     -1.429676   1.000000   1.000000
   28       -2.046299     -1.355404   1.000000   1.000000
   29       -1.613843     -1.009394   1.000000   1.000000
   30       -1.601269     -0.966074   1.000000   1.000000
   31       -1.392737     -0.504737   1.000000   1.000000
   32       -0.994617     -0.397693   1.000000   1.000000
   33       -0.908899     -0.016568   1.000000   1.000000
   34       -0.731790      0.095291   1.000000   1.000000
   35       -0.594254      0.311011   1.000000   1.000000
   36       -0.143116      0.651540   1.000000   1.000000
   37       -0.088938      0.909263   1.000000   1.000000
   38        0.004870      1.085240   1.000000   1.000000
   39        0.210106      1.135575   1.000000   1.000000
   40        0.583831      1.387903   1.000000   1.000000
   41        0.596200      2.074652   1.000000   1.000000
   42        0.853434      2.184578   1.000000   1.000000
   43        0.996723      2.460224   1.000000   1.000000
   44        1.158823      2.579362   1.000000   1.000000
   45        1.645480      5.487119   1.000000   0.000000
   46        1.874899      5.742360   1.000000   0.000000
   47        1.901986      5.828598   1.000000   0.000000
   48        2.042831      6.069642   1.000000   0.000000
   49        2.290538      6.094706   1.000000   0.000000
   50        2.358189      6.096318   1.000000   0.000000
   51        2.517687      6.218547   1.000000   0.000000
   52        2.705736      6.243854   1.000000   0.000000
   53        3.143356      6.647876   1.000000   0.000000
   54        3.221666      6.657754   1.000000   0.000000
   55        3.322092      6.885913   1.000000   0.000000
   56        3.490443      6.995815   1.000000   0.000000
   57        5.192937      7.153542   0.000000   0.000000
   58        5.461860      7.323457   0.000000   0.000000
   59        5.551234      7.353917   0.000000   0.000000
   60        5.784156      7.727197   0.000000   0.000000
   61        6.200981      8.003206   0.000000   0.000000
   62        6.807110      8.300830   0.000000   0.000000
   63        6.823284      8.381054   0.000000   0.000000
   64        6.986179      8.504143   0.000000   0.000000
   65       14.469554     14.878203   0.000000   0.000000
   66       15.853989     16.249840   0.000000   0.000000
   67       16.217422     16.622873   0.000000   0.000000
   68       18.232159     18.893970   0.000000   0.000000
   69       18.558687     19.148648   0.000000   0.000000
   70       18.709571     19.184814   0.000000   0.000000
   71       18.900483     19.435595   0.000000   0.000000
   72       19.065108     19.797227   0.000000   0.000000
 
  0.4000000E+00  0.3085325E-21  0.3308722E-23  0.7142857E-02
    1      -48.932875    -44.916556   1.000000   1.000000
    2      -48.930666    -44.913726   1.000000   1.000000
    3      -48.930421    -44.913576   1.000000   1.000000
    4      -48.925524    -44.907194   1.000000   1.000000
    5      -48.820101    -44.754182   1.000000   1.000000
    6      -48.812894    -44.744316   1.000000   1.000000
    7      -48.795172    -44.721289   1.000000   1.000000
    8      -48.794568    -44.720472   1.000000   1.000000
    9      -48.776575    -44.609280   1.000000   1.000000
   10      -48.772819    -44.603657   1.000000   1.000000
   11      -48.771955    -44.603099   1.000000   1.000000
   12      -48.768742    -44.597736   1.000000   1.000000
   13      -15.619543    -15.549119   1.000000   1.000000
   14      -15.368432    -15.353998   1.000000   1.000000
   15      -15.184761    -15.000427   1.000000   1.000000
   16      -15.026271    -14.987122   1.000000   1.000000
   17      -14.973170    -14.939947   1.000000   1.000000
   18      -14.915242    -14.764801   1.000000   1.000000
   19      -14.898046    -14.687842   1.000000   1.000000
   20      -14.854015    -14.670164   1.000000   1.000000
   21       -3.014403     -2.170962   1.000000   1.000000
   22       -2.873458     -2.078486   1.000000   1.000000
   23       -2.526923     -1.785379   1.000000   1.000000
   24       -2.508772     -1.611911   1.000000   1.000000
   25       -2.394459     -1.510357   1.000000   1.000000
   26       -2.140987     -1.393120   1.000000   1.000000
   27       -1.968643     -1.384426   1.000000   1.000000
   28       -1.859365     -1.124053   1.000000   1.000000
   29       -1.500453     -1.000079   1.000000   1.000000
   30       -1.300736     -0.954155   1.000000   1.000000
   31       -1.216380     -0.649504   1.000000   1.000000
   32       -1.107597     -0.336689   1.000000   1.000000
   33       -0.755474      0.131799   1.000000   1.000000
   34       -0.526361      0.282906   1.000000   1.000000
   35       -0.391423      0.405954   1.000000   1.000000
   36       -0.122497      0.489829   1.000000   1.000000
   37       -0.052375      0.863294   1.000000   1.000000
   38       -0.011643      0.909316   1.000000   1.000000
   39        0.296591      1.130697   1.000000   1.000000
   40        0.315497      1.543781   1.000000   1.000000
   41        0.499808      1.601144   1.000000   1.000000
   42        0.902345      1.813985   1.000000   1.000000
   43        0.961972      2.119311   1.000000   1.000000
   44        1.072191      2.171507   1.000000   1.000000
   45        1.377651      5.512945   1.000000   0.000000
   46        1.577563      5.634085   1.000000   0.000000
   47        1.606247      5.786287   1.000000   0.000000
   48        1.659568      5.882250   1.000000   0.000000
   49        1.885233      6.005306   1.000000   0.000000
   50        1.990066      6.157093   1.000000   0.000000
   51        2.275118      6.321564   1.000000   0.000000
   52        2.335943      6.358600   1.000000   0.000000
   53        3.227202      6.603504   1.000000   0.000000
   54        3.265478      6.736571   1.000000   0.000000
   55        3.271426      6.891629   1.000000   0.000000
   56        3.482958      6.948276   1.000000   0.000000
   57        5.139252      7.149637   0.000000   0.000000
   58        5.362383      7.213664   0.000000   0.000000
   59        5.478014      7.413752   0.000000   0.000000
   60        5.606353      7.576936   0.000000   0.000000
   61        6.339757      8.123417   0.000000   0.000000
   62        6.591838      8.199298   0.000000   0.000000
   63        7.057585      8.558944   0.000000   0.000000
   64        7.106510      8.595282   0.000000   0.000000
   65       15.754687     16.125977   0.000000   0.000000
   66       16.555516     16.946484   0.000000   0.000000
   67       16.741977     17.138912   0.000000   0.000000
   68       18.077744     18.492783   0.000000   0.000000
   69       18.585933     19.136447   0.000000   0.000000
   70       18.704363     19.250335   0.000000   0.000000
   71       18.994496     19.511106   0.000000   0.000000
   72       19.464759     20.083392   0.000000   0.000000
 
  0.5000000E+00  0.3591959E-21  0.3308722E-23  0.3571429E-02
    1      -48.941927    -44.928156   1.000000   1.000000
    2      -48.941926    -44.928155   1.000000   1.000000
    3      -48.938330    -44.923464   1.000000   1.000000
    4      -48.938328    -44.923463   1.000000   1.000000
    5      -48.806020    -44.735748   1.000000   1.000000
    6      -48.806018    -44.735747   1.000000   1.000000
    7      -48.802646    -44.731111   1.000000   1.000000
    8      -48.802644    -44.731111   1.000000   1.000000
    9      -48.771558    -44.601720   1.000000   1.000000
   10      -48.771557    -44.601718   1.000000   1.000000
   11      -48.771301    -44.601586   1.000000   1.000000
   12      -48.771300    -44.601584   1.000000   1.000000
   13      -15.253485    -15.200199   1.000000   1.000000
   14      -15.253479    -15.200193   1.000000   1.000000
   15      -15.184121    -15.148817   1.000000   1.000000
   16      -15.184115    -15.148812   1.000000   1.000000
   17      -14.963182    -14.777239   1.000000   1.000000
   18      -14.963180    -14.777237   1.000000   1.000000
   19      -14.899939    -14.730553   1.000000   1.000000
   20      -14.899938    -14.730552   1.000000   1.000000
   21       -3.146895     -2.345729   1.000000   1.000000
   22       -3.146893     -2.345729   1.000000   1.000000
   23       -2.504702     -1.737369   1.000000   1.000000
   24       -2.504695     -1.737366   1.000000   1.000000
   25       -2.312737     -1.332499   1.000000   1.000000
   26       -2.312733     -1.332491   1.000000   1.000000
   27       -1.777875     -1.135809   1.000000   1.000000
   28       -1.777873     -1.135804   1.000000   1.000000
   29       -1.319664     -0.906041   1.000000   1.000000
   30       -1.319662     -0.906034   1.000000   1.000000
   31       -1.002615     -0.655786   1.000000   1.000000
   32       -1.002611     -0.655781   1.000000   1.000000
   33       -0.413065      0.218968   1.000000   1.000000
   34       -0.413054      0.218974   1.000000   1.000000
   35       -0.379098      0.683023   1.000000   1.000000
   36       -0.379093      0.683032   1.000000   1.000000
   37       -0.128027      0.857520   1.000000   1.000000
   38       -0.128014      0.857523   1.000000   1.000000
   39        0.397703      1.209527   1.000000   1.000000
   40        0.397711      1.209534   1.000000   1.000000
   41        0.897840      1.744224   1.000000   1.000000
   42        0.897846      1.744229   1.000000   1.000000
   43        1.087981      1.837527   1.000000   1.000000
   44        1.087985      1.837531   1.000000   1.000000
   45        1.337399      5.664396   1.000000   0.000000
   46        1.337400      5.664400   1.000000   0.000000
   47        1.405060      5.677021   1.000000   0.000000
   48        1.405061      5.677024   1.000000   0.000000
   49        1.485315      6.120141   1.000000   0.000000
   50        1.485325      6.120143   1.000000   0.000000
   51        2.177938      6.201243   1.000000   0.000000
   52        2.177943      6.201245   1.000000   0.000000
   53        3.253181      6.792193   1.000000   0.000000
   54        3.253183      6.792197   1.000000   0.000000
   55        3.399853      6.862469   1.000000   0.000000
   56        3.399856      6.862472   1.000000   0.000000
   57        5.236699      7.188155   0.000000   0.000000
   58        5.236702      7.188158   0.000000   0.000000
   59        5.522938      7.486232   0.000000   0.000000
   60        5.522943      7.486235   0.000000   0.000000
   61        6.473733      8.186808   0.000000   0.000000
   62        6.473737      8.186813   0.000000   0.000000
   63        7.161759      8.660118   0.000000   0.000000
   64        7.161767      8.660124   0.000000   0.000000
   65       16.921762     17.319235   0.000000   0.000000
   66       16.921788     17.319259   0.000000   0.000000
   67       16.986282     17.351341   0.000000   0.000000
   68       16.986286     17.351344   0.000000   0.000000
   69       18.298985     18.824069   0.000000   0.000000
   70       18.299016     18.824102   0.000000   0.000000
   71       19.458105     20.005399   0.000000   0.000000
   72       19.458118     20.005415   0.000000   0.000000
 
 -0.3966533E-22  0.1428571E+00  0.1058791E-21  0.7142857E-02
    1      -48.865048    -44.811675   1.000000   1.000000
    2      -48.854611    -44.796974   1.000000   1.000000
    3      -48.836893    -44.795108   1.000000   1.000000
    4      -48.833537    -44.790559   1.000000   1.000000
    5      -48.820201    -44.774701   1.000000   1.000000
    6      -48.816841    -44.770145   1.000000   1.000000
    7      -48.800289    -44.716274   1.000000   1.000000
    8      -48.797049    -44.701057   1.000000   1.000000
    9      -48.785344    -44.637670   1.000000   1.000000
   10      -48.777933    -44.620083   1.000000   1.000000
   11      -48.774924    -44.619685   1.000000   1.000000
   12      -48.771209    -44.602280   1.000000   1.000000
   13      -16.763966    -16.682003   1.000000   1.000000
   14      -16.161357    -16.128846   1.000000   1.000000
   15      -15.888396    -15.720641   1.000000   1.000000
   16      -15.154694    -15.044785   1.000000   1.000000
   17      -14.828886    -14.711223   1.000000   1.000000
   18      -14.789179    -14.653776   1.000000   1.000000
   19      -14.697918    -14.598528   1.000000   1.000000
   20      -14.657362    -14.549792   1.000000   1.000000
   21       -3.717330     -2.948789   1.000000   1.000000
   22       -3.036486     -2.188755   1.000000   1.000000
   23       -3.036114     -2.074896   1.000000   1.000000
   24       -2.897622     -1.865143   1.000000   1.000000
   25       -2.437680     -1.465759   1.000000   1.000000
   26       -2.046268     -1.248329   1.000000   1.000000
   27       -1.976398     -1.156130   1.000000   1.000000
   28       -1.893640     -1.126546   1.000000   1.000000
   29       -1.756654     -0.829057   1.000000   1.000000
   30       -1.667347     -0.777720   1.000000   1.000000
   31       -1.526464     -0.548597   1.000000   1.000000
   32       -0.830889     -0.101053   1.000000   1.000000
   33       -0.731050      0.064860   1.000000   1.000000
   34       -0.306035      0.802961   1.000000   1.000000
   35        0.168786      0.948093   1.000000   1.000000
   36        0.252857      1.026134   1.000000   1.000000
   37        0.320243      1.130412   1.000000   1.000000
   38        0.577619      1.562248   1.000000   1.000000
   39        0.711687      1.805396   1.000000   1.000000
   40        0.735554      2.377762   1.000000   1.000000
   41        0.841986      2.500205   1.000000   1.000000
   42        1.011615      2.600452   1.000000   1.000000
   43        1.073052      2.947598   1.000000   1.000000
   44        1.823312      3.182751   1.000000   1.000000
   45        1.893749      5.295434   1.000000   0.000000
   46        2.020641      5.379029   1.000000   0.000000
   47        2.201022      5.428855   1.000000   0.000000
   48        2.343267      5.767661   1.000000   0.000000
   49        2.386322      5.770648   1.000000   0.000000
   50        2.407446      5.789169   1.000000   0.000000
   51        2.586291      6.100222   1.000000   0.000000
   52        2.696701      6.136464   1.000000   0.000000
   53        2.985329      6.219941   1.000000   0.000000
   54        3.178852      6.509820   1.000000   0.000000
   55        3.188718      6.923532   1.000000   0.000000
   56        3.512018      7.084505   1.000000   0.000000
   57        5.177833      7.212147   0.000000   0.000000
   58        5.708406      7.576091   0.000000   0.000000
   59        6.686133      8.098576   0.000000   0.000000
   60        6.688261      8.239735   0.000000   0.000000
   61        6.825222      8.525623   0.000000   0.000000
   62        6.923777      8.528828   0.000000   0.000000
   63        6.958675      8.587846   0.000000   0.000000
   64        7.331382      9.052435   0.000000   0.000000
   65       12.251960     12.804421   0.000000   0.000000
   66       14.193969     14.658533   0.000000   0.000000
   67       14.852644     15.325104   0.000000   0.000000
   68       15.552376     16.212768   0.000000   0.000000
   69       16.049717     16.641779   0.000000   0.000000
   70       17.144310     17.806308   0.000000   0.000000
   71       17.257822     18.051657   0.000000   0.000000
   72       18.413125     19.078769   0.000000   0.000000
 
  0.1000000E+00  0.1428571E+00 -0.1058791E-21  0.7142857E-02
    1      -48.862909    -44.810042   1.000000   1.000000