       N       E                     dE             d eps       ncg     rms          ort
SDA:   1    -0.130192473471E+03   -0.13019E+03    0.00000E+00 10224   0.885E+00 0.000E+00
CGA:   2    -0.130496157566E+03   -0.30368E+00   -0.29657E+00 10224   0.411E+00 0.476E-01
CGA:   3    -0.130596037363E+03   -0.99880E-01   -0.99742E-01 10224   0.975E-01 0.572E-02
CGA:   4    -0.130621326648E+03   -0.25289E-01   -0.25076E-01 10224   0.417E-01 0.423E-02
CGA:   5    -0.130637682286E+03   -0.16356E-01   -0.16111E-01 10224   0.201E-01 0.147E-02
CGA:   6    -0.130644313555E+03   -0.66313E-02   -0.65461E-02 10224   0.826E-02 0.846E-03
CGA:   7    -0.130646818299E+03   -0.25047E-02   -0.24726E-02 10224   0.245E-02 0.492E-03
CGA:   8    -0.130647673012E+03   -0.85471E-03   -0.83625E-03 10224   0.104E-02 0.193E-03
CGA:   9    -0.130648127606E+03   -0.45459E-03   -0.43427E-03 10224   0.603E-03 0.129E-03
CGA:  10    -0.130648448196E+03   -0.32059E-03   -0.30430E-03 10224   0.327E-03 0.773E-04
CGA:  11    -0.130648586422E+03   -0.13823E-03   -0.13311E-03 10224   0.125E-03 0.455E-04
CGA:  12    -0.130648636404E+03   -0.49982E-04   -0.48472E-04 10224   0.396E-04 0.178E-04
CGA:  13    -0.130648646461E+03   -0.10057E-04   -0.10530E-04 10224   0.120E-04 0.181E-04
CGA:  14    -0.130648648564E+03   -0.21025E-05   -0.30056E-05 10224   0.599E-05 0.104E-04
CGA:  15    -0.130648649248E+03   -0.68388E-06   -0.10357E-05 10224   0.369E-05 0.436E-05
   1 F= -.13064865E+03 E0= -.13064865E+03  d E =-.130649E+03  mag=    12.0000
       N       E                     dE             d eps       ncg     rms          ort
SDA:   1    -0.125469105677E+03    0.51795E+01    0.00000E+00 10224   0.282E+02 0.000E+00
CGA:   2    -0.129523220174E+03   -0.40541E+01   -0.40435E+01 10224   0.375E+01 0.279E-01
CGA:   3    -0.130290119821E+03   -0.76690E+00   -0.76739E+00 10224   0.814E+00 0.374E-02
CGA:   4    -0.130510875664E+03   -0.22076E+00   -0.22074E+00 10224   0.231E+00 0.332E-03
CGA:   5    -0.130562166088E+03   -0.51290E-01   -0.51296E-01 10224   0.681E-01 0.154E-03
CGA:   6    -0.130582340402E+03   -0.20174E-01   -0.20156E-01 10224   0.223E-01 0.305E-03
CGA:   7    -0.130590453840E+03   -0.81134E-02   -0.81037E-02 10224   0.113E-01 0.682E-04
CGA:   8    -0.130594162355E+03   -0.37085E-02   -0.37240E-02 10224   0.348E-02-0.198E-03
CGA:   9    -0.130595367184E+03   -0.12048E-02   -0.12170E-02 10224   0.118E-02-0.115E-03
CGA:  10    -0.130595776134E+03   -0.40895E-03   -0.41769E-03 10224   0.534E-03-0.803E-04
CGA:  11    -0.130596030992E+03   -0.25486E-03   -0.30488E-03 10224   0.509E-03-0.142E-03
CGA:  12    -0.130596175128E+03   -0.14414E-03   -0.15341E-03 10224   0.248E-03-0.703E-04
CGA:  13    -0.130596241680E+03   -0.66552E-04   -0.66781E-04 10224   0.725E-04-0.867E-05
CGA:  14    -0.130596263072E+03   -0.21392E-04   -0.21285E-04 10224   0.213E-04 0.629E-05
CGA:  15    -0.130596269649E+03   -0.65773E-05   -0.65942E-05 10224   0.874E-05 0.532E-05
CGA:  16    -0.130596272741E+03   -0.30919E-05   -0.31030E-05 10224   0.419E-05 0.298E-05
CGA:  17    -0.130596275000E+03   -0.22582E-05   -0.21455E-05 10224   0.257E-05 0.119E-05
CGA:  18    -0.130596275733E+03   -0.73370E-06   -0.80743E-06 10224   0.145E-05 0.155E-05
   2 F= -.13059628E+03 E0= -.13059628E+03  d E =0.523735E-01  mag=    12.0000
       N       E                     dE             d eps       ncg     rms          ort
SDA:   1    -0.128922577226E+03    0.16737E+01    0.00000E+00 10224   0.104E+02 0.000E+00
CGA:   2    -0.130330304869E+03   -0.14077E+01   -0.14123E+01 10224   0.131E+01-0.204E-01
CGA:   3    -0.130599946961E+03   -0.26964E+00   -0.26949E+00 10224   0.282E+00-0.457E-04
CGA:   4    -0.130674820657E+03   -0.74874E-01   -0.74881E-01 10224   0.878E-01 0.996E-03
CGA:   5    -0.130693688545E+03   -0.18868E-01   -0.18882E-01 10224   0.241E-01 0.252E-03
CGA:   6    -0.130700996502E+03   -0.73080E-02   -0.73104E-02 10224   0.834E-02-0.729E-04
CGA:   7    -0.130703886021E+03   -0.28895E-02   -0.28969E-02 10224   0.438E-02-0.929E-04
CGA:   8    -0.130705240683E+03   -0.13547E-02   -0.13505E-02 10224   0.125E-02 0.114E-03
CGA:   9    -0.130705646100E+03   -0.40542E-03   -0.40124E-03 10224   0.415E-03 0.113E-03
CGA:  10    -0.130705777546E+03   -0.13145E-03   -0.13068E-03 10224   0.149E-03 0.714E-04
CGA:  11    -0.130705835773E+03   -0.58227E-04   -0.55626E-04 10224   0.827E-04 0.673E-04
CGA:  12    -0.130705875867E+03   -0.40094E-04   -0.38162E-04 10224   0.444E-04 0.518E-04
CGA:  13    -0.130705900499E+03   -0.24632E-04   -0.25167E-04 10224   0.393E-04-0.188E-05
CGA:  14    -0.130705912008E+03   -0.11509E-04   -0.11411E-04 10224   0.165E-04 0.157E-04
CGA:  15    -0.130705915692E+03   -0.36844E-05   -0.48142E-05 10224   0.763E-05 0.127E-04
CGA:  16    -0.130705916590E+03   -0.89734E-06   -0.14451E-05 10224   0.450E-05 0.530E-05
   3 F= -.13070592E+03 E0= -.13070592E+03  d E =-.572673E-01  mag=    12.0000
       N       E                     dE             d eps       ncg     rms          ort
SDA:   1    -0.130705665132E+03    0.25056E-03    0.00000E+00 10224   0.152E-02 0.000E+00
CGA:   2    -0.130705859410E+03   -0.19428E-03   -0.20244E-03 10224   0.188E-03 0.552E-04
CGA:   3    -0.130705900559E+03   -0.41149E-04   -0.41194E-04 10224   0.447E-04 0.710E-06
CGA:   4    -0.130705914780E+03   -0.14221E-04   -0.14698E-04 10224   0.219E-04-0.835E-05
CGA:   5    -0.130705917777E+03   -0.29964E-05   -0.31573E-05 10224   0.609E-05 0.167E-05
CGA:   6    -0.130705918112E+03   -0.33574E-06   -0.82976E-06 10224   0.296E-05 0.349E-05
   4 F= -.13070592E+03 E0= -.13070592E+03  d E =-.572689E-01  mag=    12.0000
       N       E                     dE             d eps       ncg     rms          ort
SDA:   1    -0.130387040179E+03    0.31888E+00    0.00000E+00 10224   0.938E+00 0.000E+00
CGA:   2    -0.130602359512E+03   -0.21532E+00   -0.21530E+00 10224   0.347E+00 0.126E-03
CGA:   3    -0.130676216150E+03   -0.73857E-01   -0.73858E-01 10224   0.957E-01-0.258E-03
CGA:   4    -0.130701085781E+03   -0.24870E-01   -0.24870E-01 10224   0.252E-01-0.130E-04
CGA:   5    -0.130707183446E+03   -0.60977E-02   -0.60965E-02 10224   0.877E-02-0.143E-03
CGA:   6    -0.130709923740E+03   -0.27403E-02   -0.27462E-02 10224   0.373E-02-0.964E-04
CGA:   7    -0.130710935455E+03   -0.10117E-02   -0.10123E-02 10224   0.915E-03-0.275E-04
CGA:   8    -0.130711209449E+03   -0.27399E-03   -0.27694E-03 10224   0.237E-03-0.592E-04
CGA:   9    -0.130711275291E+03   -0.65842E-04   -0.66066E-04 10224   0.565E-04-0.554E-05
CGA:  10    -0.130711291596E+03   -0.16305E-04   -0.16347E-04 10224   0.150E-04-0.114E-05
CGA:  11    -0.130711297567E+03   -0.59705E-05   -0.66103E-05 10224   0.826E-05-0.338E-05
CGA:  12    -0.130711299334E+03   -0.17675E-05   -0.17618E-05 10224   0.265E-05 0.119E-05
CGA:  13    -0.130711300083E+03   -0.74826E-06   -0.76095E-06 10224   0.817E-06 0.646E-06
   5 F= -.13071130E+03 E0= -.13071130E+03  d E =-.538197E-02  mag=    12.0000
       N       E                     dE             d eps       ncg     rms          ort
SDA:   1    -0.130687731404E+03    0.23568E-01    0.00000E+00 10224   0.690E-01 0.000E+00
CGA:   2    -0.130703482686E+03   -0.15751E-01   -0.15753E-01 10224   0.256E-01 0.579E-04
CGA:   3    -0.130708950460E+03   -0.54678E-02   -0.54604E-02 10224   0.706E-02-0.106E-03
CGA:   4    -0.130710780284E+03   -0.18298E-02   -0.18295E-02 10224   0.185E-02-0.138E-04
CGA:   5    -0.130711235015E+03   -0.45473E-03   -0.45320E-03 10224   0.663E-03-0.422E-04
CGA:   6    -0.130711442279E+03   -0.20726E-03   -0.20834E-03 10224   0.287E-03-0.264E-04
CGA:   7    -0.130711517316E+03   -0.75038E-04   -0.74969E-04 10224   0.692E-04-0.665E-05
CGA:   8    -0.130711539989E+03   -0.22672E-04   -0.23845E-04 10224   0.257E-04-0.166E-04
CGA:   9    -0.130711545268E+03   -0.52790E-05   -0.52708E-05 10224   0.600E-05-0.521E-06
CGA:  10    -0.130711546790E+03   -0.15219E-05   -0.15318E-05 10224   0.168E-05 0.404E-06
CGA:  11    -0.130711547482E+03   -0.69214E-06   -0.76451E-06 10224   0.120E-05-0.504E-06
   6 F= -.13071155E+03 E0= -.13071155E+03  d E =-.562937E-02  mag=    12.0000
       N       E                     dE             d eps       ncg     rms          ort
SDA:   1    -0.130568834644E+03    0.14271E+00    0.00000E+00 10224   0.353E+00 0.000E+00
CGA:   2    -0.130649340150E+03   -0.80506E-01   -0.80592E-01 10224   0.173E+00 0.162E-02
CGA:   3    -0.130692598893E+03   -0.43259E-01   -0.43253E-01 10224   0.576E-01-0.270E-03
CGA:   4    -0.130706580695E+03   -0.13982E-01   -0.13980E-01 10224   0.165E-01-0.428E-04
CGA:   5    -0.130710778227E+03   -0.41975E-02   -0.42042E-02 10224   0.603E-02 0.274E-03
CGA:   6    -0.130712528196E+03   -0.17500E-02   -0.17485E-02 10224   0.198E-02 0.184E-03
CGA:   7    -0.130713057619E+03   -0.52942E-03   -0.53032E-03 10224   0.438E-03 0.496E-04
CGA:   8    -0.130713183841E+03   -0.12622E-03   -0.12621E-03 10224   0.973E-04 0.287E-05
CGA:   9    -0.130713207696E+03   -0.23855E-04   -0.24341E-04 10224   0.232E-04 0.171E-04
CGA:  10    -0.130713212738E+03   -0.50423E-05   -0.57145E-05 10224   0.749E-05 0.102E-04
CGA:  11    -0.130713214214E+03   -0.14755E-05   -0.19398E-05 10224   0.329E-05 0.501E-05
CGA:  12    -0.130713215367E+03   -0.11529E-05   -0.10705E-05 10224   0.147E-05 0.142E-05
CGA:  13    -0.130713215754E+03   -0.38792E-06   -0.45944E-06 10224   0.736E-06 0.136E-05
   7 F= -.13071322E+03 E0= -.13071322E+03  d E =-.166827E-02  mag=    12.0000
       N       E                     dE             d eps       ncg     rms          ort
SDA:   1    -0.130688833105E+03    0.24382E-01    0.00000E+00 10224   0.603E-01 0.000E+00
CGA:   2    -0.130702438770E+03   -0.13606E-01   -0.13628E-01 10224   0.291E-01 0.612E-03
CGA:   3    -0.130709845054E+03   -0.74063E-02   -0.74050E-02 10224   0.987E-02-0.164E-03
CGA:   4    -0.130712224985E+03   -0.23799E-02   -0.23796E-02 10224   0.282E-02-0.169E-04
CGA:   5    -0.130712925435E+03   -0.70045E-03   -0.70152E-03 10224   0.994E-03 0.109E-03
CGA:   6    -0.130713213272E+03   -0.28784E-03   -0.28635E-03 10224   0.316E-03 0.762E-04
CGA:   7    -0.130713300782E+03   -0.87510E-04   -0.87558E-04 10224   0.713E-04 0.225E-04
CGA:   8    -0.130713322473E+03   -0.21691E-04   -0.21635E-04 10224   0.167E-04 0.230E-05
CGA:   9    -0.130713325464E+03   -0.29912E-05   -0.33879E-05 10224   0.450E-05 0.619E-05
CGA:  10    -0.130713325816E+03   -0.35213E-06   -0.80217E-06 10224   0.213E-05 0.355E-05
   8 F= -.13071333E+03 E0= -.13071333E+03  d E =-.177833E-02  mag=    12.0000
       N       E                     dE             d eps       ncg     rms          ort
SDA:   1    -0.130652195982E+03    0.61129E-01    0.00000E+00 10224   0.153E+00 0.000E+00
CGA:   2    -0.130697949557E+03   -0.45754E-01   -0.45736E-01 10224   0.665E-01 0.387E-03
CGA:   3    -0.130710239497E+03   -0.12290E-01   -0.12270E-01 10224   0.136E-01-0.326E-03
CGA:   4    -0.130713452480E+03   -0.32130E-02   -0.32132E-02 10224   0.253E-02 0.341E-04
CGA:   5    -0.130714051946E+03   -0.59947E-03   -0.59994E-03 10224   0.917E-03 0.606E-04
CGA:   6    -0.130714330246E+03   -0.27830E-03   -0.27679E-03 10224   0.348E-03 0.293E-04
CGA:   7    -0.130714447628E+03   -0.11738E-03   -0.11743E-03 10224   0.125E-03-0.735E-06
CGA:   8    -0.130714485967E+03   -0.38339E-04   -0.38532E-04 10224   0.362E-04-0.335E-05
CGA:   9    -0.130714493099E+03   -0.71321E-05   -0.75041E-05 10224   0.739E-05 0.924E-05
CGA:  10    -0.130714494287E+03   -0.11881E-05   -0.15367E-05 10224   0.254E-05 0.406E-05
CGA:  11    -0.130714495008E+03   -0.72142E-06   -0.69372E-06 10224   0.879E-06 0.107E-05
   9 F= -.13071450E+03 E0= -.13071450E+03  d E =-.116919E-02  mag=    12.0000
       N       E                     dE             d eps       ncg     rms          ort
SDA:   1    -0.130674048622E+03    0.40446E-01    0.00000E+00 10224   0.100E+00 0.000E+00
CGA:   2    -0.130704032060E+03   -0.29983E-01   -0.29967E-01 10224   0.436E-01 0.323E-03
CGA:   3    -0.130712122524E+03   -0.80905E-02   -0.80745E-02 10224   0.892E-02-0.269E-03
CGA:   4    -0.130714230954E+03   -0.21084E-02   -0.21086E-02 10224   0.166E-02 0.272E-04
CGA:   5    -0.130714621495E+03   -0.39054E-03   -0.39089E-03 10224   0.593E-03 0.479E-04
CGA:   6    -0.130714802774E+03   -0.18128E-03   -0.18007E-03 10224   0.225E-03 0.228E-04
CGA:   7    -0.130714879721E+03   -0.76947E-04   -0.77004E-04 10224   0.823E-04-0.763E-06
CGA:   8    -0.130714905052E+03   -0.25332E-04   -0.25499E-04 10224   0.242E-04-0.273E-05
CGA:   9    -0.130714909311E+03   -0.42585E-05   -0.46471E-05 10224   0.536E-05 0.726E-05
CGA:  10    -0.130714909957E+03   -0.64574E-06   -0.10023E-05 10224   0.201E-05 0.337E-05
  10 F= -.13071491E+03 E0= -.13071491E+03  d E =-.158414E-02  mag=    12.0000
       N       E                     dE             d eps       ncg     rms          ort
SDA:   1    -0.130709704152E+03    0.52052E-02    0.00000E+00 10224   0.129E-01 0.000E+00
CGA:   2    -0.130713532518E+03   -0.38284E-02   -0.38219E-02 10224   0.555E-02 0.122E-03
CGA:   3    -0.130714589044E+03   -0.10565E-02   -0.10509E-02 10224   0.117E-02-0.976E-04
CGA:   4    -0.130714857181E+03   -0.26814E-03   -0.26825E-03 10224   0.210E-03 0.120E-04
CGA:   5    -0.130714905100E+03   -0.47919E-04   -0.48154E-04 10224   0.711E-04 0.157E-04
CGA:   6    -0.130714927367E+03   -0.22267E-04   -0.21899E-04 10224   0.263E-04 0.813E-05
CGA:   7    -0.130714937283E+03   -0.99161E-05   -0.98271E-05 10224   0.105E-04 0.959E-06
CGA:   8    -0.130714940755E+03   -0.34721E-05   -0.35230E-05 10224   0.352E-05-0.669E-06
CGA:   9    -0.130714940934E+03   -0.17866E-06   -0.41156E-06 10224   0.136E-05 0.183E-05
  11 F= -.13071494E+03 E0= -.13071494E+03  d E =-.161512E-02  mag=    12.0000
       N       E                     dE             d eps       ncg     rms          ort
SDA:   1    -0.130660733757E+03    0.54207E-01    0.00000E+00 10224   0.122E+00 0.000E+00
CGA:   2    -0.130689788944E+03   -0.29055E-01   -0.29055E-01 10224   0.654E-01 0.502E-03
CGA:   3    -0.130707345538E+03   -0.17557E-01   -0.17561E-01 10224   0.247E-01-0.161E-03
CGA:   4    -0.130713020447E+03   -0.56749E-02   -0.56747E-02 10224   0.677E-02-0.212E-04
CGA:   5    -0.130714813148E+03   -0.17927E-02   -0.17911E-02 10224   0.248E-02 0.582E-04
CGA:   6    -0.130715514858E+03   -0.70171E-03   -0.70050E-03 10224   0.727E-03 0.286E-04
CGA:   7    -0.130715706246E+03   -0.19139E-03   -0.19125E-03 10224   0.162E-03 0.748E-05
CGA:   8    -0.130715753522E+03   -0.47276E-04   -0.47628E-04 10224   0.413E-04-0.749E-05
CGA:   9    -0.130715764351E+03   -0.10830E-04   -0.10706E-04 10224   0.109E-04 0.467E-05
CGA:  10    -0.130715767572E+03   -0.32201E-05   -0.31733E-05 10224   0.318E-05 0.302E-05
CGA:  11    -0.130715768785E+03   -0.12131E-05   -0.11725E-05 10224   0.125E-05 0.985E-06
CGA:  12    -0.130715769473E+03   -0.68790E-06   -0.69265E-06 10224   0.680E-06-0.282E-07
  12 F= -.13071577E+03 E0= -.13071577E+03  d E =-.828539E-03  mag=    12.0000
