unknown system                          
           1
     2.875312   -0.000003   -0.000000
    -0.000007    4.651682    0.000012
     0.000000    0.000019    9.263552
   Mn   O 
   4   8
Direct configuration=     1
   0.24999934  0.03511357  0.86540186
   0.74999935  0.96489059  0.13459893
   0.75000091  0.53511210  0.63459890
   0.25000045  0.46488653  0.36540153
   0.25000071  0.71267705  0.53058355
   0.74999975  0.21267748  0.96941626
   0.24999903  0.78732357  0.03058459
   0.75000019  0.28732365  0.46941768
   0.24999964  0.15763380  0.22636992
   0.25000066  0.34236557  0.72636918
   0.75000552  0.65763100  0.27362860
   0.74999444  0.84236609  0.77362999
unknown system                          
           1
     2.823529   -0.000003   -0.000000
    -0.000006    4.569139    0.000007
     0.000000    0.000009    9.086802
   Mn   O 
   4   8
Direct configuration=     2
   0.25000006  0.03540453  0.86515167
   0.75000233  0.96459381  0.13484835
   0.75000217  0.53540714  0.63484807
   0.25000426  0.46459464  0.36515218
   0.25000060  0.70973126  0.53068542
   0.74999902  0.20973278  0.96931394
   0.24999811  0.79027030  0.03068666
   0.74999974  0.29026841  0.46931484
   0.24999865  0.15713663  0.22604941
   0.24999834  0.34286304  0.72604875
   0.75000035  0.65713370  0.27395013
   0.74999638  0.84286476  0.77395158
unknown system                          
           1
     2.853372   -0.000003   -0.000000
    -0.000006    4.616709    0.000010
     0.000000    0.000015    9.188664
   Mn   O 
   4   8
Direct configuration=     3
   0.24999964  0.03523382  0.86529866
   0.75000058  0.96476794  0.13470181
   0.75000143  0.53523404  0.63470168
   0.25000203  0.46476590  0.36529868
   0.25000066  0.71145961  0.53062557
   0.74999944  0.21146049  0.96937406
   0.24999865  0.78854139  0.03062669
   0.75000001  0.28854066  0.46937526
   0.24999923  0.15742833  0.22623771
   0.24999970  0.34257117  0.72623701
   0.75000338  0.65742548  0.27376123
   0.74999524  0.84257218  0.77376264
unknown system                          
           1
     2.853004   -0.000003   -0.000000
    -0.000006    4.616122    0.000010
     0.000000    0.000015    9.187407
   Mn   O 
   4   8
Direct configuration=     4
   0.24999964  0.03523590  0.86529687
   0.75000060  0.96476581  0.13470360
   0.75000144  0.53523615  0.63470347
   0.25000205  0.46476381  0.36529689
   0.25000066  0.71143850  0.53062630
   0.74999944  0.21143939  0.96937332
   0.24999864  0.78856251  0.03062743
   0.75000000  0.28856176  0.46937452
   0.24999923  0.15742476  0.22623542
   0.24999969  0.34257473  0.72623471
   0.75000335  0.65742191  0.27376353
   0.74999526  0.84257575  0.77376495
unknown system                          
           1
     2.855754   -0.000004    0.000001
    -0.000007    4.605255    0.000009
     0.000006    0.000013    9.168798
   Mn   O 
   4   8
Direct configuration=     5
   0.25000065  0.03576703  0.86500210
   0.75000227  0.96423373  0.13499855
   0.75000273  0.53576743  0.63499838
   0.25000415  0.46423227  0.36500215
   0.24999985  0.71272021  0.53049740
   0.74999824  0.21272075  0.96950212
   0.24999738  0.78728086  0.03049841
   0.74999902  0.28727975  0.46950303
   0.24999838  0.15798791  0.22651023
   0.24999772  0.34201149  0.72650950
   0.75000344  0.65798735  0.27348844
   0.74999618  0.84201221  0.77349068
unknown system                          
           1
     2.856498   -0.000004    0.000002
    -0.000008    4.602313    0.000009
     0.000008    0.000013    9.163761
   Mn   O 
   4   8
Direct configuration=     6
   0.25000092  0.03591112  0.86492216
   0.75000272  0.96408937  0.13507854
   0.75000308  0.53591156  0.63507836
   0.25000472  0.46408807  0.36492221
   0.24999963  0.71306792  0.53046245
   0.74999791  0.21306837  0.96953705
   0.24999704  0.78693316  0.03046342
   0.74999875  0.28693195  0.46953789
   0.24999814  0.15814069  0.22658476
   0.24999719  0.34185869  0.72658403
   0.75000347  0.65814075  0.27341384
   0.74999643  0.84185933  0.77341630
unknown system                          
           1
     2.857508   -0.000003    0.000001
    -0.000006    4.595154    0.000005
     0.000006    0.000005    9.157503
   Mn   O 
   4   8
Direct configuration=     7
   0.25000080  0.03613732  0.86528635
   0.75000221  0.96386367  0.13471423
   0.75000221  0.53613801  0.63471441
   0.25000501  0.46386301  0.36528557
   0.25000024  0.71393961  0.53047492
   0.74999811  0.21393990  0.96952448
   0.24999735  0.78606135  0.03047570
   0.74999898  0.28606058  0.46952506
   0.24999894  0.15794981  0.22651482
   0.24999721  0.34205014  0.72651399
   0.75000146  0.65794796  0.27348534
   0.74999749  0.84204964  0.77348613
unknown system                          
           1
     2.857925   -0.000002    0.000001
    -0.000005    4.592201    0.000004
     0.000006    0.000002    9.154921
   Mn   O 
   4   8
Direct configuration=     8
   0.25000074  0.03623078  0.86543669
   0.75000200  0.96377042  0.13456384
   0.75000186  0.53623157  0.63456417
   0.25000512  0.46377002  0.36543556
   0.25000049  0.71429977  0.53048007
   0.74999819  0.21429999  0.96951930
   0.24999748  0.78570114  0.03048077
   0.74999907  0.28570055  0.46951977
   0.24999927  0.15787094  0.22648595
   0.24999722  0.34212924  0.72648508
   0.75000063  0.65786830  0.27351485
   0.74999792  0.84212828  0.77351495
unknown system                          
           1
     2.858315   -0.000001    0.000000
    -0.000003    4.584642    0.000002
     0.000003   -0.000002    9.160154
   Mn   O 
   4   8
Direct configuration=     9
   0.25000095  0.03638407  0.86548037
   0.75000151  0.96361691  0.13451981
   0.75000138  0.53638450  0.63451936
   0.25000441  0.46361653  0.36548044
   0.25000065  0.71498823  0.53042057
   0.74999845  0.21498840  0.96957909
   0.24999802  0.78501254  0.03042110
   0.74999949  0.28501272  0.46957912
   0.24999970  0.15749973  0.22629478
   0.24999757  0.34249987  0.72629441
   0.74999944  0.65749829  0.27370592
   0.74999843  0.84249920  0.77370603
unknown system                          
           1
     2.858631   -0.000000   -0.000000
    -0.000002    4.578518    0.000000
     0.000001   -0.000005    9.164393
   Mn   O 
   4   8
Direct configuration=    10
   0.25000112  0.03650846  0.86551574
   0.75000111  0.96349234  0.13448417
   0.75000099  0.53650860  0.63448308
   0.25000384  0.46349198  0.36551678
   0.25000078  0.71554688  0.53037239
   0.74999866  0.21554701  0.96962750
   0.24999846  0.78445379  0.03037278
   0.74999982  0.28445460  0.46962718
   0.25000004  0.15719851  0.22614000
   0.24999785  0.34280061  0.72614003
   0.74999848  0.65719805  0.27386062
   0.74999885  0.84280019  0.77386073
unknown system                          
           1
     2.858744    0.000000   -0.000000
    -0.000001    4.576325   -0.000000
     0.000001   -0.000006    9.165911
   Mn   O 
   4   8
Direct configuration=    11
   0.25000118  0.03655307  0.86552840
   0.75000096  0.96344767  0.13447141
   0.75000085  0.53655309  0.63447009
   0.25000363  0.46344731  0.36552978
   0.25000083  0.71574721  0.53035514
   0.74999874  0.21574732  0.96964483
   0.24999862  0.78425342  0.03035549
   0.74999995  0.28425446  0.46964438
   0.25000016  0.15709050  0.22608460
   0.24999795  0.34290845  0.72608477
   0.74999813  0.65709038  0.27391600
   0.74999899  0.84290812  0.77391611
unknown system                          
           1
     2.858610    0.000000   -0.000001
    -0.000001    4.568992    0.000000
    -0.000001   -0.000005    9.175167
   Mn   O 
   4   8
Direct configuration=    12
   0.25000216  0.03706890  0.86559611
   0.75000165  0.96293100  0.13440384
   0.75000173  0.53706856  0.63440363
   0.25000265  0.46293133  0.36559631
   0.24999993  0.71585118  0.53024146
   0.74999881  0.21585044  0.96975878
   0.24999890  0.78415010  0.03024147
   0.74999996  0.28415009  0.46975854
   0.24999926  0.15701588  0.22600744
   0.24999818  0.34298455  0.72600676
   0.74999819  0.65701603  0.27399346
   0.74999860  0.84298295  0.77399320
