  12  12   1   0
  0.1031597E+02  0.2873988E-09  0.4602672E-09  0.9358284E-09  0.5000000E-15
  1.000000000000000E-004
  CAR 
 unknown system                          
     10.14450715    -51.65253726  301      3.60431995      1.00000000
    -51.653  0.0000E+00  0.0000E+00  0.0000E+00  0.0000E+00
    -51.447  0.0000E+00  0.0000E+00  0.0000E+00  0.0000E+00
    -51.241  0.0000E+00  0.0000E+00  0.0000E+00  0.0000E+00
    -51.035  0.0000E+00  0.0000E+00  0.0000E+00  0.0000E+00
    -50.829  0.0000E+00  0.0000E+00  0.0000E+00  0.0000E+00
    -50.623  0.0000E+00  0.0000E+00  0.0000E+00  0.0000E+00
    -50.417  0.0000E+00  0.0000E+00  0.0000E+00  0.0000E+00
    -50.211  0.0000E+00  0.0000E+00  0.0000E+00  0.0000E+00
    -50.005  0.0000E+00  0.0000E+00  0.0000E+00  0.0000E+00
    -49.799  0.0000E+00  0.0000E+00  0.0000E+00  0.0000E+00
    -49.593  0.0000E+00  0.0000E+00  0.0000E+00  0.0000E+00
    -49.387  0.0000E+00  0.0000E+00  0.0000E+00  0.0000E+00
    -49.181  0.0000E+00  0.0000E+00  0.0000E+00  0.0000E+00
    -48.975  0.0000E+00  0.0000E+00  0.0000E+00  0.0000E+00
    -48.769  0.3121E-01  0.3122E-01  0.6430E-02  0.6431E-02
    -48.563  0.0000E+00  0.0000E+00  0.3015E-01  0.3015E-01
    -48.357  0.0000E+00  0.0000E+00  0.3015E-01  0.3015E-01
    -48.151  0.0000E+00  0.0000E+00  0.3015E-01  0.3015E-01
    -47.945  0.0000E+00  0.0000E+00  0.3015E-01  0.3015E-01
    -47.739  0.0000E+00  0.0000E+00  0.3015E-01  0.3015E-01
    -47.533  0.0000E+00  0.0000E+00  0.3015E-01  0.3015E-01
    -47.327  0.0000E+00  0.0000E+00  0.3015E-01  0.3015E-01
    -47.121  0.0000E+00  0.0000E+00  0.3015E-01  0.3015E-01
    -46.915  0.0000E+00  0.0000E+00  0.3015E-01  0.3015E-01
    -46.709  0.0000E+00  0.0000E+00  0.3015E-01  0.3015E-01
    -46.503  0.0000E+00  0.0000E+00  0.3015E-01  0.3015E-01
    -46.297  0.0000E+00  0.0000E+00  0.3015E-01  0.3015E-01
    -46.091  0.0000E+00  0.0000E+00  0.3015E-01  0.3015E-01
    -45.885  0.0000E+00  0.0000E+00  0.3015E-01  0.3015E-01
    -45.679  0.0000E+00  0.0000E+00  0.3015E-01  0.3015E-01
    -45.473  0.0000E+00  0.0000E+00  0.3015E-01  0.3015E-01
    -45.267  0.0000E+00  0.0000E+00  0.3015E-01  0.3015E-01
    -45.061  0.0000E+00  0.0000E+00  0.3015E-01  0.3015E-01
    -44.855  0.1795E-01  0.1794E-01  0.3385E-01  0.3385E-01
    -44.649  0.4496E-01  0.4496E-01  0.5025E-01  0.5025E-01
    -44.443  0.0000E+00  0.0000E+00  0.6030E-01  0.6030E-01
    -44.237  0.0000E+00  0.0000E+00  0.6030E-01  0.6030E-01
    -44.031  0.0000E+00  0.0000E+00  0.6030E-01  0.6030E-01
    -43.825  0.0000E+00  0.0000E+00  0.6030E-01  0.6030E-01
    -43.619  0.0000E+00  0.0000E+00  0.6030E-01  0.6030E-01
    -43.413  0.0000E+00  0.0000E+00  0.6030E-01  0.6030E-01
    -43.207  0.0000E+00  0.0000E+00  0.6030E-01  0.6030E-01
    -43.001  0.0000E+00  0.0000E+00  0.6030E-01  0.6030E-01
    -42.795  0.0000E+00  0.0000E+00  0.6030E-01  0.6030E-01
    -42.589  0.0000E+00  0.0000E+00  0.6030E-01  0.6030E-01
    -42.383  0.0000E+00  0.0000E+00  0.6030E-01  0.6030E-01
    -42.177  0.0000E+00  0.0000E+00  0.6030E-01  0.6030E-01
    -41.971  0.0000E+00  0.0000E+00  0.6030E-01  0.6030E-01
    -41.765  0.0000E+00  0.0000E+00  0.6030E-01  0.6030E-01
    -41.559  0.0000E+00  0.0000E+00  0.6030E-01  0.6030E-01
    -41.353  0.0000E+00  0.0000E+00  0.6030E-01  0.6030E-01
    -41.147  0.0000E+00  0.0000E+00  0.6030E-01  0.6030E-01
    -40.941  0.0000E+00  0.0000E+00  0.6030E-01  0.6030E-01
    -40.735  0.0000E+00  0.0000E+00  0.6030E-01  0.6030E-01
    -40.529  0.0000E+00  0.0000E+00  0.6030E-01  0.6030E-01
    -40.323  0.0000E+00  0.0000E+00  0.6030E-01  0.6030E-01
    -40.117  0.0000E+00  0.0000E+00  0.6030E-01  0.6030E-01
    -39.911  0.0000E+00  0.0000E+00  0.6030E-01  0.6030E-01
    -39.705  0.0000E+00  0.0000E+00  0.6030E-01  0.6030E-01
    -39.499  0.0000E+00  0.0000E+00  0.6030E-01  0.6030E-01
    -39.293  0.0000E+00  0.0000E+00  0.6030E-01  0.6030E-01
    -39.087  0.0000E+00  0.0000E+00  0.6030E-01  0.6030E-01
    -38.881  0.0000E+00  0.0000E+00  0.6030E-01  0.6030E-01
    -38.675  0.0000E+00  0.0000E+00  0.6030E-01  0.6030E-01
    -38.469  0.0000E+00  0.0000E+00  0.6030E-01  0.6030E-01
    -38.263  0.0000E+00  0.0000E+00  0.6030E-01  0.6030E-01
    -38.057  0.0000E+00  0.0000E+00  0.6030E-01  0.6030E-01
    -37.851  0.0000E+00  0.0000E+00  0.6030E-01  0.6030E-01
    -37.645  0.0000E+00  0.0000E+00  0.6030E-01  0.6030E-01
    -37.439  0.0000E+00  0.0000E+00  0.6030E-01  0.6030E-01
    -37.233  0.0000E+00  0.0000E+00  0.6030E-01  0.6030E-01
    -37.027  0.0000E+00  0.0000E+00  0.6030E-01  0.6030E-01
    -36.821  0.0000E+00  0.0000E+00  0.6030E-01  0.6030E-01
    -36.615  0.0000E+00  0.0000E+00  0.6030E-01  0.6030E-01
    -36.409  0.0000E+00  0.0000E+00  0.6030E-01  0.6030E-01
    -36.203  0.0000E+00  0.0000E+00  0.6030E-01  0.6030E-01
    -35.997  0.0000E+00  0.0000E+00  0.6030E-01  0.6030E-01
    -35.791  0.0000E+00  0.0000E+00  0.6030E-01  0.6030E-01
    -35.585  0.0000E+00  0.0000E+00  0.6030E-01  0.6030E-01
    -35.379  0.0000E+00  0.0000E+00  0.6030E-01  0.6030E-01
    -35.173  0.0000E+00  0.0000E+00  0.6030E-01  0.6030E-01
    -34.967  0.0000E+00  0.0000E+00  0.6030E-01  0.6030E-01
    -34.761  0.0000E+00  0.0000E+00  0.6030E-01  0.6030E-01
    -34.555  0.0000E+00  0.0000E+00  0.6030E-01  0.6030E-01
    -34.349  0.0000E+00  0.0000E+00  0.6030E-01  0.6030E-01
    -34.143  0.0000E+00  0.0000E+00  0.6030E-01  0.6030E-01
    -33.937  0.0000E+00  0.0000E+00  0.6030E-01  0.6030E-01
    -33.731  0.0000E+00  0.0000E+00  0.6030E-01  0.6030E-01
    -33.525  0.0000E+00  0.0000E+00  0.6030E-01  0.6030E-01
    -33.319  0.0000E+00  0.0000E+00  0.6030E-01  0.6030E-01
    -33.113  0.0000E+00  0.0000E+00  0.6030E-01  0.6030E-01
    -32.907  0.0000E+00  0.0000E+00  0.6030E-01  0.6030E-01
    -32.701  0.0000E+00  0.0000E+00  0.6030E-01  0.6030E-01
    -32.495  0.0000E+00  0.0000E+00  0.6030E-01  0.6030E-01
    -32.289  0.0000E+00  0.0000E+00  0.6030E-01  0.6030E-01
    -32.083  0.0000E+00  0.0000E+00  0.6030E-01  0.6030E-01
    -31.877  0.0000E+00  0.0000E+00  0.6030E-01  0.6030E-01
    -31.671  0.0000E+00  0.0000E+00  0.6030E-01  0.6030E-01
    -31.466  0.0000E+00  0.0000E+00  0.6030E-01  0.6030E-01
    -31.260  0.0000E+00  0.0000E+00  0.6030E-01  0.6030E-01
    -31.054  0.0000E+00  0.0000E+00  0.6030E-01  0.6030E-01
    -30.848  0.0000E+00  0.0000E+00  0.6030E-01  0.6030E-01
    -30.642  0.0000E+00  0.0000E+00  0.6030E-01  0.6030E-01
    -30.436  0.0000E+00  0.0000E+00  0.6030E-01  0.6030E-01
    -30.230  0.0000E+00  0.0000E+00  0.6030E-01  0.6030E-01
    -30.024  0.0000E+00  0.0000E+00  0.6030E-01  0.6030E-01
    -29.818  0.0000E+00  0.0000E+00  0.6030E-01  0.6030E-01
    -29.612  0.0000E+00  0.0000E+00  0.6030E-01  0.6030E-01
    -29.406  0.0000E+00  0.0000E+00  0.6030E-01  0.6030E-01
    -29.200  0.0000E+00  0.0000E+00  0.6030E-01  0.6030E-01
    -28.994  0.0000E+00  0.0000E+00  0.6030E-01  0.6030E-01
    -28.788  0.0000E+00  0.0000E+00  0.6030E-01  0.6030E-01
    -28.582  0.0000E+00  0.0000E+00  0.6030E-01  0.6030E-01
    -28.376  0.0000E+00  0.0000E+00  0.6030E-01  0.6030E-01
    -28.170  0.0000E+00  0.0000E+00  0.6030E-01  0.6030E-01
    -27.964  0.0000E+00  0.0000E+00  0.6030E-01  0.6030E-01
    -27.758  0.0000E+00  0.0000E+00  0.6030E-01  0.6030E-01
    -27.552  0.0000E+00  0.0000E+00  0.6030E-01  0.6030E-01
    -27.346  0.0000E+00  0.0000E+00  0.6030E-01  0.6030E-01
    -27.140  0.0000E+00  0.0000E+00  0.6030E-01  0.6030E-01
    -26.934  0.0000E+00  0.0000E+00  0.6030E-01  0.6030E-01
    -26.728  0.0000E+00  0.0000E+00  0.6030E-01  0.6030E-01
    -26.522  0.0000E+00  0.0000E+00  0.6030E-01  0.6030E-01
    -26.316  0.0000E+00  0.0000E+00  0.6030E-01  0.6030E-01
    -26.110  0.0000E+00  0.0000E+00  0.6030E-01  0.6030E-01
    -25.904  0.0000E+00  0.0000E+00  0.6030E-01  0.6030E-01
    -25.698  0.0000E+00  0.0000E+00  0.6030E-01  0.6030E-01
    -25.492  0.0000E+00  0.0000E+00  0.6030E-01  0.6030E-01
    -25.286  0.0000E+00  0.0000E+00  0.6030E-01  0.6030E-01
    -25.080  0.0000E+00  0.0000E+00  0.6030E-01  0.6030E-01
    -24.874  0.0000E+00  0.0000E+00  0.6030E-01  0.6030E-01
    -24.668  0.0000E+00  0.0000E+00  0.6030E-01  0.6030E-01
    -24.462  0.0000E+00  0.0000E+00  0.6030E-01  0.6030E-01
    -24.256  0.0000E+00  0.0000E+00  0.6030E-01  0.6030E-01
    -24.050  0.0000E+00  0.0000E+00  0.6030E-01  0.6030E-01
    -23.844  0.0000E+00  0.0000E+00  0.6030E-01  0.6030E-01
    -23.638  0.0000E+00  0.0000E+00  0.6030E-01  0.6030E-01
    -23.432  0.0000E+00  0.0000E+00  0.6030E-01  0.6030E-01
    -23.226  0.0000E+00  0.0000E+00  0.6030E-01  0.6030E-01
    -23.020  0.0000E+00  0.0000E+00  0.6030E-01  0.6030E-01
    -22.814  0.0000E+00  0.0000E+00  0.6030E-01  0.6030E-01
    -22.608  0.0000E+00  0.0000E+00  0.6030E-01  0.6030E-01
    -22.402  0.0000E+00  0.0000E+00  0.6030E-01  0.6030E-01
    -22.196  0.0000E+00  0.0000E+00  0.6030E-01  0.6030E-01
    -21.990  0.0000E+00  0.0000E+00  0.6030E-01  0.6030E-01
    -21.784  0.0000E+00  0.0000E+00  0.6030E-01  0.6030E-01
    -21.578  0.0000E+00  0.0000E+00  0.6030E-01  0.6030E-01
    -21.372  0.0000E+00  0.0000E+00  0.6030E-01  0.6030E-01
    -21.166  0.0000E+00  0.0000E+00  0.6030E-01  0.6030E-01
    -20.960  0.0000E+00  0.0000E+00  0.6030E-01  0.6030E-01
    -20.754  0.0000E+00  0.0000E+00  0.6030E-01  0.6030E-01
    -20.548  0.0000E+00  0.0000E+00  0.6030E-01  0.6030E-01
    -20.342  0.0000E+00  0.0000E+00  0.6030E-01  0.6030E-01
    -20.136  0.0000E+00  0.0000E+00  0.6030E-01  0.6030E-01
    -19.930  0.0000E+00  0.0000E+00  0.6030E-01  0.6030E-01
    -19.724  0.0000E+00  0.0000E+00  0.6030E-01  0.6030E-01
    -19.518  0.0000E+00  0.0000E+00  0.6030E-01  0.6030E-01
    -19.312  0.0000E+00  0.0000E+00  0.6030E-01  0.6030E-01
    -19.106  0.0000E+00  0.0000E+00  0.6030E-01  0.6030E-01
    -18.900  0.0000E+00  0.0000E+00  0.6030E-01  0.6030E-01
    -18.694  0.0000E+00  0.0000E+00  0.6030E-01  0.6030E-01
    -18.488  0.0000E+00  0.0000E+00  0.6030E-01  0.6030E-01
    -18.282  0.0000E+00  0.0000E+00  0.6030E-01  0.6030E-01
    -18.076  0.0000E+00  0.0000E+00  0.6030E-01  0.6030E-01
    -17.870  0.0000E+00  0.0000E+00  0.6030E-01  0.6030E-01
    -17.664  0.0000E+00  0.0000E+00  0.6030E-01  0.6030E-01
    -17.458  0.0000E+00  0.0000E+00  0.6030E-01  0.6030E-01
    -17.252  0.0000E+00  0.0000E+00  0.6030E-01  0.6030E-01
    -17.046  0.0000E+00  0.0000E+00  0.6030E-01  0.6030E-01
    -16.840  0.0000E+00  0.0000E+00  0.6030E-01  0.6030E-01
    -16.634  0.8492E-03  0.8492E-03  0.6049E-01  0.6049E-01
    -16.428  0.1655E-02  0.1655E-02  0.6129E-01  0.6129E-01
    -16.222  0.4283E-02  0.4283E-02  0.6282E-01  0.6282E-01
    -16.016  0.2314E-02  0.2314E-02  0.6444E-01  0.6444E-01
    -15.810  0.2559E-02  0.2559E-02  0.6600E-01  0.6600E-01
    -15.604  0.3104E-02  0.3104E-02  0.6738E-01  0.6738E-01
    -15.398  0.4152E-02  0.4152E-02  0.6950E-01  0.6950E-01
    -15.192  0.3198E-02  0.3198E-02  0.7268E-01  0.7268E-01
    -14.986  0.1106E-01  0.1107E-01  0.7871E-01  0.7872E-01
    -14.780  0.1826E-01  0.1826E-01  0.8761E-01  0.8761E-01
    -14.574  0.1197E-01  0.1197E-01  0.9952E-01  0.9952E-01
    -14.368  0.0000E+00  0.0000E+00  0.1005E+00  0.1005E+00
    -14.162  0.0000E+00  0.0000E+00  0.1005E+00  0.1005E+00
    -13.956  0.0000E+00  0.0000E+00  0.1005E+00  0.1005E+00
    -13.750  0.0000E+00  0.0000E+00  0.1005E+00  0.1005E+00
    -13.544  0.0000E+00  0.0000E+00  0.1005E+00  0.1005E+00
    -13.338  0.0000E+00  0.0000E+00  0.1005E+00  0.1005E+00
    -13.132  0.0000E+00  0.0000E+00  0.1005E+00  0.1005E+00
    -12.926  0.0000E+00  0.0000E+00  0.1005E+00  0.1005E+00
    -12.720  0.0000E+00  0.0000E+00  0.1005E+00  0.1005E+00
    -12.514  0.0000E+00  0.0000E+00  0.1005E+00  0.1005E+00
    -12.308  0.0000E+00  0.0000E+00  0.1005E+00  0.1005E+00
    -12.102  0.0000E+00  0.0000E+00  0.1005E+00  0.1005E+00
    -11.896  0.0000E+00  0.0000E+00  0.1005E+00  0.1005E+00
    -11.690  0.0000E+00  0.0000E+00  0.1005E+00  0.1005E+00
    -11.484  0.0000E+00  0.0000E+00  0.1005E+00  0.1005E+00
    -11.278  0.0000E+00  0.0000E+00  0.1005E+00  0.1005E+00
    -11.072  0.0000E+00  0.0000E+00  0.1005E+00  0.1005E+00
    -10.866  0.0000E+00  0.0000E+00  0.1005E+00  0.1005E+00
    -10.660  0.0000E+00  0.0000E+00  0.1005E+00  0.1005E+00
    -10.455  0.0000E+00  0.0000E+00  0.1005E+00  0.1005E+00
    -10.249  0.0000E+00  0.0000E+00  0.1005E+00  0.1005E+00
    -10.043  0.0000E+00  0.0000E+00  0.1005E+00  0.1005E+00
     -9.837  0.0000E+00  0.0000E+00  0.1005E+00  0.1005E+00
     -9.631  0.0000E+00  0.0000E+00  0.1005E+00  0.1005E+00
     -9.425  0.0000E+00  0.0000E+00  0.1005E+00  0.1005E+00
     -9.219  0.0000E+00  0.0000E+00  0.1005E+00  0.1005E+00
     -9.013  0.0000E+00  0.0000E+00  0.1005E+00  0.1005E+00
     -8.807  0.0000E+00  0.0000E+00  0.1005E+00  0.1005E+00
     -8.601  0.0000E+00  0.0000E+00  0.1005E+00  0.1005E+00
     -8.395  0.0000E+00  0.0000E+00  0.1005E+00  0.1005E+00
     -8.189  0.0000E+00  0.0000E+00  0.1005E+00  0.1005E+00
     -7.983  0.0000E+00  0.0000E+00  0.1005E+00  0.1005E+00
     -7.777  0.0000E+00  0.0000E+00  0.1005E+00  0.1005E+00
     -7.571  0.0000E+00  0.0000E+00  0.1005E+00  0.1005E+00
     -7.365  0.0000E+00  0.0000E+00  0.1005E+00  0.1005E+00
     -7.159  0.0000E+00  0.0000E+00  0.1005E+00  0.1005E+00
     -6.953  0.0000E+00  0.0000E+00  0.1005E+00  0.1005E+00
     -6.747  0.0000E+00  0.0000E+00  0.1005E+00  0.1005E+00
     -6.541  0.0000E+00  0.0000E+00  0.1005E+00  0.1005E+00
     -6.335  0.0000E+00  0.0000E+00  0.1005E+00  0.1005E+00
     -6.129  0.0000E+00  0.0000E+00  0.1005E+00  0.1005E+00
     -5.923  0.0000E+00  0.0000E+00  0.1005E+00  0.1005E+00
     -5.717  0.0000E+00  0.0000E+00  0.1005E+00  0.1005E+00
     -5.511  0.0000E+00  0.0000E+00  0.1005E+00  0.1005E+00
     -5.305  0.0000E+00  0.0000E+00  0.1005E+00  0.1005E+00
     -5.099  0.0000E+00  0.0000E+00  0.1005E+00  0.1005E+00
     -4.893  0.0000E+00  0.0000E+00  0.1005E+00  0.1005E+00
     -4.687  0.0000E+00  0.0000E+00  0.1005E+00  0.1005E+00
     -4.481  0.0000E+00  0.0000E+00  0.1005E+00  0.1005E+00
     -4.275  0.0000E+00  0.0000E+00  0.1005E+00  0.1005E+00
     -4.069  0.0000E+00  0.0000E+00  0.1005E+00  0.1005E+00
     -3.863  0.0000E+00  0.0000E+00  0.1005E+00  0.1005E+00
     -3.657  0.0000E+00  0.0000E+00  0.1005E+00  0.1005E+00
     -3.451  0.3612E-13  0.3644E-13  0.1005E+00  0.1005E+00
     -3.245  0.1517E-02  0.1517E-02  0.1009E+00  0.1009E+00
     -3.039  0.3010E-02  0.3011E-02  0.1022E+00  0.1022E+00
     -2.833  0.9563E-02  0.9564E-02  0.1053E+00  0.1053E+00
     -2.627  0.3921E-02  0.3922E-02  0.1082E+00  0.1082E+00
     -2.421  0.3675E-02  0.3676E-02  0.1111E+00  0.1111E+00
     -2.215  0.1688E-01  0.1688E-01  0.1164E+00  0.1164E+00
     -2.009  0.1231E-01  0.1231E-01  0.1220E+00  0.1220E+00
     -1.803  0.1713E-01  0.1713E-01  0.1301E+00  0.1301E+00
     -1.597  0.1378E-01  0.1378E-01  0.1366E+00  0.1366E+00
     -1.391  0.2087E-02  0.2087E-02  0.1403E+00  0.1403E+00
     -1.185  0.7954E-02  0.7954E-02  0.1438E+00  0.1438E+00
     -0.979  0.9604E-02  0.9604E-02  0.1493E+00  0.1493E+00
     -0.773  0.4490E-02  0.4490E-02  0.1529E+00  0.1529E+00
     -0.567  0.9058E-02  0.9058E-02  0.1574E+00  0.1574E+00
     -0.361  0.5541E-02  0.5541E-02  0.1617E+00  0.1617E+00
     -0.155  0.7931E-02  0.7931E-02  0.1657E+00  0.1657E+00
      0.051  0.1058E-01  0.1058E-01  0.1704E+00  0.1704E+00
      0.257  0.1347E-01  0.1347E-01  0.1767E+00  0.1767E+00
      0.463  0.1117E-01  0.1117E-01  0.1821E+00  0.1821E+00
      0.669  0.7655E-02  0.7655E-02  0.1877E+00  0.1877E+00
      0.875  0.6341E-02  0.6341E-02  0.1914E+00  0.1914E+00
      1.081  0.8294E-02  0.8295E-02  0.1973E+00  0.1973E+00
      1.287  0.8789E-02  0.8789E-02  0.2008E+00  0.2008E+00
      1.493  0.1174E-01  0.1174E-01  0.2057E+00  0.2057E+00
      1.699  0.9810E-02  0.9810E-02  0.2107E+00  0.2107E+00
      1.905  0.1129E-01  0.1129E-01  0.2164E+00  0.2164E+00
      2.111  0.1342E-01  0.1342E-01  0.2225E+00  0.2225E+00
      2.317  0.1237E-01  0.1237E-01  0.2293E+00  0.2293E+00
      2.523  0.6832E-02  0.6832E-02  0.2334E+00  0.2334E+00
      2.729  0.9424E-02  0.9424E-02  0.2375E+00  0.2375E+00
      2.935  0.1743E-02  0.1743E-02  0.2410E+00  0.2410E+00
      3.141  0.6629E-02  0.6630E-02  0.2430E+00  0.2430E+00
      3.347  0.8775E-02  0.8775E-02  0.2482E+00  0.2482E+00
      3.553  0.1742E-03  0.1742E-03  0.2513E+00  0.2513E+00
      3.759  0.0000E+00  0.0000E+00  0.2513E+00  0.2513E+00
      3.965  0.0000E+00  0.0000E+00  0.2513E+00  0.2513E+00
      4.171  0.0000E+00  0.0000E+00  0.2513E+00  0.2513E+00
      4.377  0.0000E+00  0.0000E+00  0.2513E+00  0.2513E+00
      4.583  0.0000E+00  0.0000E+00  0.2513E+00  0.2513E+00
      4.789  0.0000E+00  0.0000E+00  0.2513E+00  0.2513E+00
      4.995  0.0000E+00  0.0000E+00  0.2513E+00  0.2513E+00
      5.201  0.2460E-02  0.2460E-02  0.2518E+00  0.2518E+00
      5.407  0.6325E-02  0.6326E-02  0.2545E+00  0.2545E+00
      5.613  0.1128E-01  0.1128E-01  0.2591E+00  0.2591E+00
      5.819  0.1216E-01  0.1216E-01  0.2643E+00  0.2643E+00
      6.025  0.1408E-01  0.1408E-01  0.2702E+00  0.2702E+00
      6.231  0.1525E-01  0.1525E-01  0.2768E+00  0.2768E+00
      6.437  0.3541E-02  0.3541E-02  0.2811E+00  0.2811E+00
      6.643  0.1226E-01  0.1226E-01  0.2858E+00  0.2858E+00
      6.849  0.8182E-02  0.8183E-02  0.2902E+00  0.2902E+00
      7.055  0.1329E-01  0.1329E-01  0.2959E+00  0.2959E+00
      7.261  0.6585E-02  0.6236E-02  0.3013E+00  0.3012E+00
      7.467  0.0000E+00  0.0000E+00  0.3015E+00  0.3015E+00
      7.673  0.0000E+00  0.0000E+00  0.3015E+00  0.3015E+00
      7.879  0.0000E+00  0.0000E+00  0.3015E+00  0.3015E+00
      8.085  0.0000E+00  0.0000E+00  0.3015E+00  0.3015E+00
      8.291  0.0000E+00  0.0000E+00  0.3015E+00  0.3015E+00
      8.497  0.0000E+00  0.0000E+00  0.3015E+00  0.3015E+00
      8.703  0.0000E+00  0.0000E+00  0.3015E+00  0.3015E+00
      8.909  0.0000E+00  0.0000E+00  0.3015E+00  0.3015E+00
      9.115  0.0000E+00  0.0000E+00  0.3015E+00  0.3015E+00
      9.321  0.0000E+00  0.0000E+00  0.3015E+00  0.3015E+00
      9.527  0.0000E+00  0.0000E+00  0.3015E+00  0.3015E+00
      9.733  0.0000E+00  0.0000E+00  0.3015E+00  0.3015E+00
      9.939  0.0000E+00  0.0000E+00  0.3015E+00  0.3015E+00
     10.145  0.0000E+00  0.0000E+00  0.3015E+00  0.3015E+00
     10.14450715    -51.65253726  301      3.60431995      1.00000000
    -51.653  0.0000E+00  0.0000E+00  0.0000E+00  0.0000E+00  0.0000E+00  0.0000E+00  0.0000E+00  0.0000E+00  0.0000E+00  0.0000E+00  0.0000E+00  0.0000E+00  0.0000E+00  0.0000E+00  0.0000E+00  0.0000E+00  0.0000E+00  0.0000E+00
    -51.447  0.0000E+00  0.0000E+00  0.0000E+00  0.0000E+00  0.0000E+00  0.0000E+00  0.0000E+00  0.0000E+00  0.0000E+00  0.0000E+00  0.0000E+00  0.0000E+00  0.0000E+00  0.0000E+00  0.0000E+00  0.0000E+00  0.0000E+00  0.0000E+00
    -51.241  0.0000E+00  0.0000E+00  0.0000E+00  0.0000E+00  0.0000E+00  0.0000E+00  0.0000E+00  0.0000E+00  0.0000E+00  0.0000E+00  0.0000E+00  0.0000E+00  0.0000E+00  0.0000E+00  0.0000E+00  0.0000E+00  0.0000E+00  0.0000E+00
    -51.035  0.0000E+00  0.0000E+00  0.0000E+00  0.0000E+00  0.0000E+00  0.0000E+00  0.0000E+00  0.0000E+00  0.0000E+00  0.0000E+00  0.0000E+00  0.0000E+00  0.0000E+00  0.0000E+00  0.0000E+00  0.0000E+00  0.0000E+00  0.0000E+00
    -50.829  0.0000E+00  0.0000E+00  0.0000E+00  0.0000E+00  0.0000E+00  0.0000E+00  0.0000E+00  0.0000E+00  0.0000E+00  0.0000E+00  0.0000E+00  0.0000E+00  0.0000E+00  0.0000E+00  0.0000E+00  0.0000E+00  0.0000E+00  0.0000E+00
    -50.623  0.0000E+00  0.0000E+00  0.0000E+00  0.0000E+00  0.0000E+00  0.0000E+00  0.0000E+00  0.0000E+00  0.0000E+00  0.0000E+00  0.0000E+00  0.0000E+00  0.0000E+00  0.0000E+00  0.0000E+00  0.0000E+00  0.0000E+00  0.0000E+00
    -50.417  0.0000E+00  0.0000E+00  0.0000E+00  0.0000E+00  0.0000E+00  0.0000E+00  0.0000E+00  0.0000E+00  0.0000E+00  0.0000E+00  0.0000E+00  0.0000E+00  0.0000E+00  0.0000E+00  0.0000E+00  0.0000E+00  0.0000E+00  0.0000E+00
    -50.211  0.0000E+00  0.0000E+00  0.0000E+00  0.0000E+00  0.0000E+00  0.0000E+00  0.0000E+00  0.0000E+00  0.0000E+00  0.0000E+00  0.0000E+00  0.0000E+00  0.0000E+00  0.0000E+00  0.0000E+00  0.0000E+00  0.0000E+00  0.0000E+00
    -50.005  0.0000E+00  0.0000E+00  0.0000E+00  0.0000E+00  0.0000E+00  0.0000E+00  0.0000E+00  0.0000E+00  0.0000E+00  0.0000E+00  0.0000E+00  0.0000E+00  0.0000E+00  0.0000E+00  0.0000E+00  0.0000E+00  0.0000E+00  0.0000E+00
    -49.799  0.0000E+00  0.0000E+00  0.0000E+00  0.0000E+00  0.0000E+00  0.0000E+00  0.0000E+00  0.0000E+00  0.0000E+00  0.0000E+00  0.0000E+00  0.0000E+00  0.0000E+00  0.0000E+00  0.0000E+00  0.0000E+00  0.0000E+00  0.0000E+00
    -49.593  0.0000E+00  0.0000E+00  0.0000E+00  0.0000E+00  0.0000E+00  0.0000E+00  0.0000E+00  0.0000E+00  0.0000E+00  0.0000E+00  0.0000E+00  0.0000E+00  0.0000E+00  0.0000E+00  0.0000E+00  0.0000E+00  0.0000E+00  0.0000E+00
    -49.387  0.0000E+00  0.0000E+00  0.0000E+00  0.0000E+00  0.0000E+00  0.0000E+00  0.0000E+00  0.0000E+00  0.0000E+00  0.0000E+00  0.0000E+00  0.0000E+00  0.0000E+00  0.0000E+00  0.0000E+00  0.0000E+00  0.0000E+00  0.0000E+00
    -49.181  0.0000E+00  0.0000E+00  0.0000E+00  0.0000E+00  0.0000E+00  0.0000E+00  0.0000E+00  0.0000E+00  0.0000E+00  0.0000E+00  0.0000E+00  0.0000E+00  0.0000E+00  0.0000E+00  0.0000E+00  0.0000E+00  0.0000E+00  0.0000E+00
    -48.975  0.0000E+00  0.0000E+00  0.0000E+00  0.0000E+00  0.0000E+00  0.0000E+00  0.0000E+00  0.0000E+00  0.0000E+00  0.0000E+00  0.0000E+00  0.0000E+00  0.0000E+00  0.0000E+00  0.0000E+00  0.0000E+00  0.0000E+00  0.0000E+00
    -48.769  0.4362E-05  0.1703E-04  0.1837E-05  0.1893E-02  0.8603E-04  0.3682E-02  0.3725E-05  0.3071E+01  0.2731E-08  0.5306E-06  0.4806E-06  0.4399E-06  0.4951E-05  0.6214E-05  0.7485E-06  0.3276E-05  0.1094E-07  0.1864E-04
    -48.563  0.0000E+00  0.0000E+00  0.0000E+00  0.0000E+00  0.0000E+00  0.0000E+00  0.0000E+00  0.0000E+00  0.0000E+00  0.0000E+00  0.0000E+00  0.0000E+00  0.0000E+00  0.0000E+00  0.0000E+00  0.0000E+00  0.0000E+00  0.0000E+00
    -48.357  0.0000E+00  0.0000E+00  0.0000E+00  0.0000E+00  0.0000E+00  0.0000E+00  0.0000E+00  0.0000E+00  0.0000E+00  0.0000E+00  0.0000E+00  0.0000E+00  0.0000E+00  0.0000E+00  0.0000E+00  0.0000E+00  0.0000E+00  0.0000E+00
    -48.151  0.0000E+00  0.0000E+00  0.0000E+00  0.0000E+00  0.0000E+00  0.0000E+00  0.0000E+00  0.0000E+00  0.0000E+00  0.0000E+00  0.0000E+00  0.0000E+00  0.0000E+00  0.0000E+00  0.0000E+00  0.0000E+00  0.0000E+00  0.0000E+00
    -47.945  0.0000E+00  0.0000E+00  0.0000E+00  0.0000E+00  0.0000E+00  0.0000E+00  0.0000E+00  0.0000E+00  0.0000E+00  0.0000E+00  0.0000E+00  0.0000E+00  0.0000E+00  0.0000E+00  0.0000E+00  0.0000E+00  0.0000E+00  0.0000E+00
    -47.739  0.0000E+00  0.0000E+00  0.0000E+00  0.0000E+00  0.0000E+00  0.0000E+00  0.0000E+00  0.0000E+00  0.0000E+00  0.0000E+00  0.0000E+00  0.0000E+00  0.0000E+00  0.0000E+00  0.0000E+00  0.0000E+00  0.0000E+00  0.0000E+00
    -47.533  0.0000E+00  0.0000E+00  0.0000E+00  0.0000E+00  0.0000E+00  0.0000E+00  0.0000E+00  0.0000E+00  0.0000E+00  0.0000E+00  0.0000E+00  0.0000E+00  0.0000E+00  0.0000E+00  0.0000E+00  0.0000E+00  0.0000E+00  0.0000E+00
    -47.327  0.0000E+00  0.0000E+00  0.0000E+00  0.0000E+00  0.0000E+00  0.0000E+00  0.0000E+00  0.0000E+00  0.0000E+00  0.0000E+00  0.0000E+00  0.0000E+00  0.0000E+00  0.0000E+00  0.0000E+00  0.0000E+00  0.0000E+00  0.0000E+00
    -47.121  0.0000E+00  0.0000E+00  0.0000E+00  0.0000E+00  0.0000E+00  0.0000E+00  0.0000E+00  0.0000E+00  0.0000E+00  0.0000E+00  0.0000E+00  0.0000E+00  0.0000E+00  0.0000E+00  0.0000E+00  0.0000E+00  0.0000E+00  0.0000E+00
    -46.915  0.0000E+00  0.0000E+00  0.0000E+00  0.0000E+00  0.0000E+00  0.0000E+00  0.0000E+00  0.0000E+00  0.0000E+00  0.0000E+00  0.0000E+00  0.0000E+00  0.0000E+00  0.0000E+00  0.0000E+00  0.0000E+00  0.0000E+00  0.0000E+00
    -46.709  0.0000E+00  0.0000E+00  0.0000E+00  0.0000E+00  0.0000E+00  0.0000E+00  0.0000E+00  0.0000E+00  0.0000E+00  0.0000E+00  0.0000E+00  0.0000E+00  0.0000E+00  0.0000E+00  0.0000E+00  0.0000E+00  0.0000E+00  0.0000E+00
    -46.503  0.0000E+00  0.0000E+00  0.0000E+00  0.0000E+00  0.0000E+00  0.0000E+00  0.0000E+00  0.0000E+00  0.0000E+00  0.0000E+00  0.0000E+00  0.0000E+00  0.0000E+00  0.0000E+00  0.0000E+00  0.0000E+00  0.0000E+00  0.0000E+00
    -46.297  0.0000E+00  0.0000E+00  0.0000E+00  0.0000E+00  0.0000E+00  0.0000E+00  0.0000E+00  0.0000E+00  0.0000E+00  0.0000E+00  0.0000E+00  0.0000E+00  0.0000E+00  0.0000E+00  0.0000E+00  0.0000E+00  0.0000E+00  0.0000E+00
    -46.091  0.0000E+00  0.0000E+00  0.0000E+00  0.0000E+00  0.0000E+00  0.0000E+00  0.0000E+00  0.0000E+00  0.0000E+00  0.0000E+00  0.0000E+00  0.0000E+00  0.0000E+00  0.0000E+00  0.0000E+00  0.0000E+00  0.0000E+00  0.0000E+00
    -45.885  0.0000E+00  0.0000E+00  0.0000E+00  0.0000E+00  0.0000E+00  0.0000E+00  0.0000E+00  0.0000E+00  0.0000E+00  0.0000E+00  0.0000E+00  0.0000E+00  0.0000E+00  0.0000E+00  0.0000E+00  0.0000E+00  0.0000E+00  0.0000E+00
    -45.679  0.0000E+00  0.0000E+00  0.0000E+00  0.0000E+00  0.0000E+00  0.0000E+00  0.0000E+00  0.0000E+00  0.0000E+00  0.0000E+00  0.0000E+00  0.0000E+00  0.0000E+00  0.0000E+00  0.0000E+00  0.0000E+00  0.0000E+00  0.0000E+00
    -45.473  0.0000E+00  0.0000E+00  0.0000E+00  0.0000E+00  0.0000E+00  0.0000E+00  0.0000E+00  0.0000E+00  0.0000E+00  0.0000E+00  0.0000E+00  0.0000E+00  0.0000E+00  0.0000E+00  0.0000E+00  0.0000E+00  0.0000E+00  0.0000E+00
    -45.267  0.0000E+00  0.0000E+00  0.0000E+00  0.0000E+00  0.0000E+00  0.0000E+00  0.0000E+00  0.0000E+00  0.0000E+00  0.0000E+00  0.0000E+00  0.0000E+00  0.0000E+00  0.0000E+00  0.0000E+00  0.0000E+00  0.0000E+00  0.0000E+00
    -45.061  0.0000E+00  0.0000E+00  0.0000E+00  0.0000E+00  0.0000E+00  0.0000E+00  0.0000E+00  0.0000E+00  0.0000E+00  0.0000E+00  0.0000E+00  0.0000E+00  0.0000E+00  0.0000E+00  0.0000E+00  0.0000E+00  0.0000E+00  0.0000E+00
    -44.855  0.9735E-05  0.5176E-05  0.4480E-03  0.2619E-05  0.1438E-02  0.9942E-04  0.1764E+01  0.1179E-05  0.6573E-06  0.1227E-08  0.5014E-06  0.6287E-06  0.3320E-05  0.5518E-05  0.2253E-05  0.2752E-06  0.9852E-05  0.4900E-08
    -44.649  0.4692E-05  0.2037E-04  0.3460E-01  0.8161E-06  0.4398E+01  0.2684E-03  0.3635E-02  0.1320E-03  0.1113E-05  0.7177E-07  0.8465E-06  0.3734E-06  0.2133E-04  0.7964E-05  0.2871E-05  0.2155E-04  0.2035E-05  0.1724E-05
    -44.443  0.0000E+00  0.0000E+00  0.0000E+00  0.0000E+00  0.0000E+00  0.0000E+00  0.0000E+00  0.0000E+00  0.0000E+00  0.0000E+00  0.0000E+00  0.0000E+00  0.0000E+00  0.0000E+00  0.0000E+00  0.0000E+00  0.0000E+00  0.0000E+00
    -44.237  0.0000E+00  0.0000E+00  0.0000E+00  0.0000E+00  0.0000E+00  0.0000E+00  0.0000E+00  0.0000E+00  0.0000E+00  0.0000E+00  0.0000E+00  0.0000E+00  0.0000E+00  0.0000E+00  0.0000E+00  0.0000E+00  0.0000E+00  0.0000E+00
    -44.031  0.0000E+00  0.0000E+00  0.0000E+00  0.0000E+00  0.0000E+00  0.0000E+00  0.0000E+00  0.0000E+00  0.0000E+00  0.0000E+00  0.0000E+00  0.0000E+00  0.0000E+00  0.0000E+00  0.0000E+00  0.0000E+00  0.0000E+00  0.0000E+00
    -43.825  0.0000E+00  0.0000E+00  0.0000E+00  0.0000E+00  0.0000E+00  0.0000E+00  0.0000E+00  0.0000E+00  0.0000E+00  0.0000E+00  0.0000E+00  0.0000E+00  0.0000E+00  0.0000E+00  0.0000E+00  0.0000E+00  0.0000E+00  0.0000E+00
    -43.619  0.0000E+00  0.0000E+00  0.0000E+00  0.0000E+00  0.0000E+00  0.0000E+00  0.0000E+00  0.0000E+00  0.0000E+00  0.0000E+00  0.0000E+00  0.0000E+00  0.0000E+00  0.0000E+00  0.0000E+00  0.0000E+00  0.0000E+00  0.0000E+00
    -43.413  0.0000E+00  0.0000E+00  0.0000E+00  0.0000E+00  0.0000E+00  0.0000E+00  0.0000E+00  0.0000E+00  0.0000E+00  0.0000E+00  0.0000E+00  0.0000E+00  0.0000E+00  0.0000E+00  0.0000E+00  0.0000E+00  0.0000E+00  0.0000E+00
    -43.207  0.0000E+00  0.0000E+00  0.0000E+00  0.0000E+00  0.0000E+00  0.0000E+00  0.0000E+00  0.0000E+00  0.0000E+00  0.0000E+00  0.0000E+00  0.0000E+00  0.0000E+00  0.0000E+00  0.0000E+00  0.0000E+00  0.0000E+00  0.0000E+00
    -43.001  0.0000E+00  0.0000E+00  0.0000E+00  0.0000E+00  0.0000E+00  0.0000E+00  0.0000E+00  0.0000E+00  0.0000E+00  0.0000E+00  0.0000E+00  0.0000E+00  0.0000E+00  0.0000E+00  0.0000E+00  0.0000E+00  0.0000E+00  0.0000E+00
    -42.795  0.0000E+00  0.0000E+00  0.0000E+00  0.0000E+00  0.0000E+00  0.0000E+00  0.0000E+00  0.0000E+00  0.0000E+00  0.0000E+00  0.0000E+00  0.0000E+00  0.0000E+00  0.0000E+00  0.0000E+00  0.0000E+00  0.0000E+00  0.0000E+00
    -42.589  0.0000E+00  0.0000E+00  0.0000E+00  0.0000E+00  0.0000E+00  0.0000E+00  0.0000E+00  0.0000E+00  0.0000E+00  0.0000E+00  0.0000E+00  0.0000E+00  0.0000E+00  0.0000E+00  0.0000E+00  0.0000E+00  0.0000E+00  0.0000E+00
    -42.383  0.0000E+00  0.0000E+00  0.0000E+00  0.0000E+00  0.0000E+00  0.0000E+00  0.0000E+00  0.0000E+00  0.0000E+00  0.0000E+00  0.0000E+00  0.0000E+00  0.0000E+00  0.0000E+00  0.0000E+00  0.0000E+00  0.0000E+00  0.0000E+00
    -42.177  0.0000E+00  0.0000E+00  0.0000E+00  0.0000E+00  0.0000E+00  0.0000E+00  0.0000E+00  0.0000E+00  0.0000E+00  0.0000E+00  0.0000E+00  0.0000E+00  0.0000E+00  0.0000E+00  0.0000E+00  0.0000E+00  0.0000E+00  0.0000E+00
    -41.971  0.0000E+00  0.0000E+00  0.0000E+00  0.0000E+00  0.0000E+00  0.0000E+00  0.0000E+00  0.0000E+00  0.0000E+00  0.0000E+00  0.0000E+00  0.0000E+00  0.0000E+00  0.0000E+00  0.0000E+00  0.0000E+00  0.0000E+00  0.0000E+00
    -41.765  0.0000E+00  0.0000E+00  0.0000E+00  0.0000E+00  0.0000E+00  0.0000E+00  0.0000E+00  0.0000E+00  0.0000E+00  0.0000E+00  0.0000E+00  0.0000E+00  0.0000E+00  0.0000E+00  0.0000E+00  0.0000E+00  0.0000E+00  0.0000E+00
    -41.559  0.0000E+00  0.0000E+00  0.0000E+00  0.0000E+00  0.0000E+00  0.0000E+00  0.0000E+00  0.0000E+00  0.0000E+00  0.0000E+00  0.0000E+00  0.0000E+00  0.0000E+00  0.0000E+00  0.0000E+00  0.0000E+00  0.0000E+00  0.0000E+00
    -41.353  0.0000E+00  0.0000E+00  0.0000E+00  0.0000E+00  0.0000E+00  0.0000E+00  0.0000E+00  0.0000E+00  0.0000E+00  0.0000E+00  0.0000E+00  0.0000E+00  0.0000E+00  0.0000E+00  0.0000E+00  0.0000E+00  0.0000E+00  0.0000E+00