       N       E                     dE             d eps       ncg     rms          ort
SDA:   1    -0.130136487916E+03   -0.13014E+03    0.00000E+00  8520   0.107E+01 0.000E+00
CGA:   2    -0.130425348461E+03   -0.28886E+00   -0.28556E+00  8520   0.570E+00 0.389E-01
CGA:   3    -0.130555550553E+03   -0.13020E+00   -0.13010E+00  8520   0.148E+00 0.617E-02
CGA:   4    -0.130588875477E+03   -0.33325E-01   -0.33220E-01  8520   0.556E-01 0.503E-02
CGA:   5    -0.130607852080E+03   -0.18977E-01   -0.18791E-01  8520   0.290E-01 0.138E-02
CGA:   6    -0.130616256422E+03   -0.84043E-02   -0.83354E-02  8520   0.141E-01 0.911E-03
CGA:   7    -0.130619978771E+03   -0.37223E-02   -0.36842E-02  8520   0.508E-02 0.941E-03
CGA:   8    -0.130621522442E+03   -0.15437E-02   -0.15068E-02  8520   0.165E-02 0.599E-03
CGA:   9    -0.130622027089E+03   -0.50465E-03   -0.49089E-03  8520   0.631E-03 0.295E-03
CGA:  10    -0.130622316548E+03   -0.28946E-03   -0.27312E-03  8520   0.412E-03 0.112E-03
CGA:  11    -0.130622512213E+03   -0.19566E-03   -0.19023E-03  8520   0.246E-03 0.331E-04
CGA:  12    -0.130622618894E+03   -0.10668E-03   -0.10910E-03  8520   0.118E-03-0.141E-04
CGA:  13    -0.130622638817E+03   -0.19923E-04   -0.21728E-04  8520   0.386E-04 0.360E-04
CGA:  14    -0.130622644711E+03   -0.58938E-05   -0.79241E-05  8520   0.167E-04 0.235E-04
CGA:  15    -0.130622648605E+03   -0.38938E-05   -0.39263E-05  8520   0.810E-05 0.803E-05
CGA:  16    -0.130622649266E+03   -0.66144E-06   -0.15645E-05  8520   0.467E-05 0.831E-05
   1 F= -.13062265E+03 E0= -.13062265E+03  d E =-.130623E+03  mag=     0.0000
       N       E                     dE             d eps       ncg     rms          ort
SDA:   1    -0.125840089182E+03    0.47826E+01    0.00000E+00  8520   0.304E+02 0.000E+00
CGA:   2    -0.129711339753E+03   -0.38713E+01   -0.38597E+01  8520   0.341E+01 0.454E-01
CGA:   3    -0.130330956458E+03   -0.61962E+00   -0.61985E+00  8520   0.823E+00-0.148E-02
CGA:   4    -0.130518084896E+03   -0.18713E+00   -0.18713E+00  8520   0.227E+00-0.141E-02
CGA:   5    -0.130558030766E+03   -0.39946E-01   -0.39941E-01  8520   0.576E-01-0.180E-03
CGA:   6    -0.130572070166E+03   -0.14039E-01   -0.14041E-01  8520   0.137E-01-0.527E-04
CGA:   7    -0.130576240949E+03   -0.41708E-02   -0.41683E-02  8520   0.762E-02 0.246E-04
CGA:   8    -0.130578920546E+03   -0.26796E-02   -0.27087E-02  8520   0.456E-02-0.226E-03
CGA:   9    -0.130580584249E+03   -0.16637E-02   -0.17189E-02  8520   0.233E-02-0.350E-03
CGA:  10    -0.130581284347E+03   -0.70010E-03   -0.71631E-03  8520   0.885E-03-0.174E-03
CGA:  11    -0.130581554525E+03   -0.27018E-03   -0.28274E-03  8520   0.382E-03-0.124E-03
CGA:  12    -0.130581663744E+03   -0.10922E-03   -0.11149E-03  8520   0.201E-03-0.252E-04
CGA:  13    -0.130581730852E+03   -0.67108E-04   -0.69096E-04  8520   0.897E-04-0.174E-04
CGA:  14    -0.130581755900E+03   -0.25048E-04   -0.24804E-04  8520   0.283E-04 0.561E-05
CGA:  15    -0.130581767149E+03   -0.11249E-04   -0.11792E-04  8520   0.103E-04-0.417E-05
CGA:  16    -0.130581768586E+03   -0.14367E-05   -0.65417E-05  8520   0.221E-04-0.107E-04
CGA:  17    -0.130581772114E+03   -0.35283E-05   -0.39913E-05  8520   0.391E-05 0.418E-05
CGA:  18    -0.130581772449E+03   -0.33463E-06   -0.68319E-06  8520   0.160E-05 0.250E-05
   2 F= -.13058177E+03 E0= -.13058177E+03  d E =0.408768E-01  mag=    -0.0000
       N       E                     dE             d eps       ncg     rms          ort
SDA:   1    -0.129103853552E+03    0.14779E+01    0.00000E+00  8520   0.107E+02 0.000E+00
CGA:   2    -0.130391668942E+03   -0.12878E+01   -0.12925E+01  8520   0.115E+01-0.260E-01
CGA:   3    -0.130597711607E+03   -0.20604E+00   -0.20603E+00  8520   0.265E+00 0.132E-02
CGA:   4    -0.130656990160E+03   -0.59279E-01   -0.59324E-01  8520   0.803E-01 0.126E-02
CGA:   5    -0.130670852657E+03   -0.13862E-01   -0.13893E-01  8520   0.190E-01 0.350E-03
CGA:   6    -0.130675575294E+03   -0.47226E-02   -0.47238E-02  8520   0.468E-02 0.169E-03
CGA:   7    -0.130676946757E+03   -0.13715E-02   -0.13713E-02  8520   0.262E-02 0.505E-05
CGA:   8    -0.130677827155E+03   -0.88040E-03   -0.87126E-03  8520   0.140E-02 0.120E-03
CGA:   9    -0.130678318784E+03   -0.49163E-03   -0.47880E-03  8520   0.644E-03 0.188E-03
CGA:  10    -0.130678532503E+03   -0.21372E-03   -0.21071E-03  8520   0.245E-03 0.120E-03
CGA:  11    -0.130678605749E+03   -0.73246E-04   -0.74090E-04  8520   0.881E-04 0.867E-04
CGA:  12    -0.130678637169E+03   -0.31419E-04   -0.31436E-04  8520   0.428E-04 0.437E-04
CGA:  13    -0.130678657982E+03   -0.20814E-04   -0.19788E-04  8520   0.246E-04 0.228E-04
CGA:  14    -0.130678666818E+03   -0.88356E-05   -0.85406E-05  8520   0.128E-04 0.363E-05
CGA:  15    -0.130678671587E+03   -0.47693E-05   -0.45272E-05  8520   0.732E-05 0.630E-05
CGA:  16    -0.130678672295E+03   -0.70769E-06   -0.16422E-05  8520   0.399E-05 0.767E-05
   3 F= -.13067867E+03 E0= -.13067867E+03  d E =-.560230E-01  mag=    -0.0000
       N       E                     dE             d eps       ncg     rms          ort
SDA:   1    -0.130678465756E+03    0.20583E-03    0.00000E+00  8520   0.146E-02 0.000E+00
CGA:   2    -0.130678626039E+03   -0.16028E-03   -0.17014E-03  8520   0.151E-03 0.694E-04
CGA:   3    -0.130678657497E+03   -0.31458E-04   -0.31017E-04  8520   0.429E-04-0.805E-05
CGA:   4    -0.130678669212E+03   -0.11715E-04   -0.13015E-04  8520   0.317E-04-0.182E-04
CGA:   5    -0.130678672112E+03   -0.28994E-05   -0.26541E-05  8520   0.108E-04-0.230E-05
CGA:   6    -0.130678672889E+03   -0.77676E-06   -0.12044E-05  8520   0.532E-05 0.336E-05
   4 F= -.13067867E+03 E0= -.13067867E+03  d E =-.560236E-01  mag=    -0.0000
       N       E                     dE             d eps       ncg     rms          ort
SDA:   1    -0.130231145682E+03    0.44753E+00    0.00000E+00  8520   0.161E+01 0.000E+00
CGA:   2    -0.130525215542E+03   -0.29407E+00   -0.29392E+00  8520   0.537E+00-0.257E-03
CGA:   3    -0.130641706685E+03   -0.11649E+00   -0.11649E+00  8520   0.162E+00-0.270E-03
CGA:   4    -0.130673867318E+03   -0.32161E-01   -0.32157E-01  8520   0.419E-01-0.124E-03
CGA:   5    -0.130682051386E+03   -0.81841E-02   -0.81759E-02  8520   0.113E-01-0.264E-03
CGA:   6    -0.130684928249E+03   -0.28769E-02   -0.28803E-02  8520   0.473E-02-0.121E-03
CGA:   7    -0.130686247517E+03   -0.13193E-02   -0.13173E-02  8520   0.187E-02 0.362E-04
CGA:   8    -0.130686838142E+03   -0.59063E-03   -0.60367E-03  8520   0.660E-03-0.146E-03
CGA:   9    -0.130687016557E+03   -0.17841E-03   -0.18350E-03  8520   0.206E-03-0.772E-04
CGA:  10    -0.130687064625E+03   -0.48068E-04   -0.48489E-04  8520   0.464E-04-0.148E-04
CGA:  11    -0.130687078669E+03   -0.14044E-04   -0.15009E-04  8520   0.199E-04-0.888E-05
CGA:  12    -0.130687081775E+03   -0.31060E-05   -0.32871E-05  8520   0.761E-05 0.443E-05
CGA:  13    -0.130687083160E+03   -0.13848E-05   -0.16393E-05  8520   0.336E-05 0.378E-05
CGA:  14    -0.130687083759E+03   -0.59857E-06   -0.79431E-06  8520   0.158E-05 0.238E-05
   5 F= -.13068708E+03 E0= -.13068708E+03  d E =-.841087E-02  mag=    -0.0000
       N       E                     dE             d eps       ncg     rms          ort
SDA:   1    -0.130598338987E+03    0.88744E-01    0.00000E+00  8520   0.317E+00 0.000E+00
CGA:   2    -0.130655874782E+03   -0.57536E-01   -0.57527E-01  8520   0.106E+00 0.535E-04
CGA:   3    -0.130678776366E+03   -0.22902E-01   -0.22899E-01  8520   0.317E-01-0.193E-03
CGA:   4    -0.130685090495E+03   -0.63141E-02   -0.63120E-02  8520   0.819E-02-0.723E-04
CGA:   5    -0.130686703185E+03   -0.16127E-02   -0.16089E-02  8520   0.222E-02-0.126E-03
CGA:   6    -0.130687266136E+03   -0.56295E-03   -0.56461E-03  8520   0.935E-03-0.538E-04
CGA:   7    -0.130687518976E+03   -0.25284E-03   -0.25205E-03  8520   0.355E-03 0.165E-04
CGA:   8    -0.130687639905E+03   -0.12093E-03   -0.13003E-03  8520   0.163E-03-0.707E-04
CGA:   9    -0.130687678172E+03   -0.38267E-04   -0.40911E-04  8520   0.563E-04-0.346E-04
CGA:  10    -0.130687689962E+03   -0.11790E-04   -0.11986E-04  8520   0.144E-04-0.661E-05
CGA:  11    -0.130687694230E+03   -0.42686E-05   -0.44584E-05  8520   0.691E-05-0.175E-05
CGA:  12    -0.130687695027E+03   -0.79679E-06   -0.10244E-05  8520   0.319E-05 0.288E-05
   6 F= -.13068770E+03 E0= -.13068770E+03  d E =-.902214E-02  mag=    -0.0000
       N       E                     dE             d eps       ncg     rms          ort
SDA:   1    -0.130217163978E+03    0.47053E+00    0.00000E+00  8520   0.164E+01 0.000E+00
CGA:   2    -0.130472680051E+03   -0.25552E+00   -0.25581E+00  8520   0.517E+00 0.482E-02
CGA:   3    -0.130618558166E+03   -0.14588E+00   -0.14592E+00  8520   0.239E+00-0.783E-03
CGA:   4    -0.130664698687E+03   -0.46141E-01   -0.46127E-01  8520   0.678E-01-0.295E-03
CGA:   5    -0.130680431514E+03   -0.15733E-01   -0.15734E-01  8520   0.267E-01 0.488E-03
CGA:   6    -0.130687742108E+03   -0.73106E-02   -0.72884E-02  8520   0.109E-01 0.575E-03
CGA:   7    -0.130690586623E+03   -0.28445E-02   -0.28370E-02  8520   0.326E-02 0.375E-03
CGA:   8    -0.130691455339E+03   -0.86872E-03   -0.86787E-03  8520   0.764E-03 0.397E-04
CGA:   9    -0.130691655431E+03   -0.20009E-03   -0.19949E-03  8520   0.177E-03 0.295E-04
CGA:  10    -0.130691701218E+03   -0.45788E-04   -0.45580E-04  8520   0.414E-04 0.225E-04
CGA:  11    -0.130691712906E+03   -0.11688E-04   -0.11592E-04  8520   0.124E-04 0.104E-04
CGA:  12    -0.130691716067E+03   -0.31610E-05   -0.33110E-05  8520   0.464E-05 0.558E-05
CGA:  13    -0.130691717250E+03   -0.11829E-05   -0.13145E-05  8520   0.236E-05 0.308E-05
CGA:  14    -0.130691717732E+03   -0.48174E-06   -0.50926E-06  8520   0.121E-05 0.135E-05
   7 F= -.13069172E+03 E0= -.13069172E+03  d E =-.402270E-02  mag=    -0.0000
       N       E                     dE             d eps       ncg     rms          ort
SDA:   1    -0.130683050357E+03    0.86669E-02    0.00000E+00  8520   0.306E-01 0.000E+00
CGA:   2    -0.130687697440E+03   -0.46471E-02   -0.46866E-02  8520   0.934E-02 0.497E-03
CGA:   3    -0.130690420271E+03   -0.27228E-02   -0.27305E-02  8520   0.452E-02-0.126E-03
CGA:   4    -0.130691282087E+03   -0.86182E-03   -0.86027E-03  8520   0.128E-02-0.416E-04
CGA:   5    -0.130691564185E+03   -0.28210E-03   -0.28243E-03  8520   0.474E-03 0.512E-04
CGA:   6    -0.130691685637E+03   -0.12145E-03   -0.12039E-03  8520   0.175E-03 0.663E-04
CGA:   7    -0.130691728749E+03   -0.43113E-04   -0.43562E-04  8520   0.518E-04 0.449E-04
CGA:   8    -0.130691744275E+03   -0.15526E-04   -0.15421E-04  8520   0.148E-04 0.126E-04
CGA:   9    -0.130691748459E+03   -0.41842E-05   -0.41898E-05  8520   0.417E-05 0.431E-05
CGA:  10    -0.130691748836E+03   -0.37749E-06   -0.69773E-06  8520   0.184E-05 0.323E-05
   8 F= -.13069175E+03 E0= -.13069175E+03  d E =-.405381E-02  mag=    -0.0000
       N       E                     dE             d eps       ncg     rms          ort
SDA:   1    -0.130434558992E+03    0.25719E+00    0.00000E+00  8520   0.708E+00 0.000E+00
CGA:   2    -0.130606402500E+03   -0.17184E+00   -0.17180E+00  8520   0.345E+00 0.202E-02
CGA:   3    -0.130673038255E+03   -0.66636E-01   -0.66602E-01  8520   0.780E-01-0.145E-02
CGA:   4    -0.130688572191E+03   -0.15534E-01   -0.15534E-01  8520   0.177E-01-0.155E-04
CGA:   5    -0.130692173592E+03   -0.36014E-02   -0.36049E-02  8520   0.534E-02 0.276E-03
CGA:   6    -0.130693523312E+03   -0.13497E-02   -0.13445E-02  8520   0.216E-02 0.161E-03
CGA:   7    -0.130694175783E+03   -0.65247E-03   -0.64466E-03  8520   0.841E-03 0.107E-03
CGA:   8    -0.130694433121E+03   -0.25734E-03   -0.25678E-03  8520   0.296E-03 0.742E-05
CGA:   9    -0.130694509671E+03   -0.76550E-04   -0.75584E-04  8520   0.704E-04 0.336E-04
CGA:  10    -0.130694528555E+03   -0.18885E-04   -0.18705E-04  8520   0.167E-04 0.145E-04
CGA:  11    -0.130694534347E+03   -0.57921E-05   -0.56847E-05  8520   0.561E-05 0.191E-05
CGA:  12    -0.130694535825E+03   -0.14775E-05   -0.14686E-05  8520   0.204E-05 0.175E-05
CGA:  13    -0.130694536467E+03   -0.64205E-06   -0.63508E-06  8520   0.107E-05 0.103E-05
   9 F= -.13069454E+03 E0= -.13069454E+03  d E =-.278763E-02  mag=    -0.0000
       N       E                     dE             d eps       ncg     rms          ort
SDA:   1    -0.130686423188E+03    0.81126E-02    0.00000E+00  8520   0.225E-01 0.000E+00
CGA:   2    -0.130691773666E+03   -0.53505E-02   -0.53475E-02  8520   0.107E-01 0.384E-03
CGA:   3    -0.130693948699E+03   -0.21750E-02   -0.21668E-02  8520   0.258E-02-0.267E-03
CGA:   4    -0.130694441440E+03   -0.49274E-03   -0.49291E-03  8520   0.564E-03 0.493E-05
CGA:   5    -0.130694549405E+03   -0.10796E-03   -0.10930E-03  8520   0.156E-03 0.395E-04
CGA:   6    -0.130694587620E+03   -0.38215E-04   -0.38141E-04  8520   0.583E-04 0.239E-04
CGA:   7    -0.130694604235E+03   -0.16616E-04   -0.16317E-04  8520   0.221E-04 0.173E-04
CGA:   8    -0.130694612562E+03   -0.83267E-05   -0.80752E-05  8520   0.921E-05 0.457E-05
CGA:   9    -0.130694614728E+03   -0.21661E-05   -0.22650E-05  8520   0.292E-05 0.391E-05
CGA:  10    -0.130694614941E+03   -0.21249E-06   -0.49103E-06  8520   0.137E-05 0.254E-05
  10 F= -.13069461E+03 E0= -.13069461E+03  d E =-.286610E-02  mag=    -0.0000
       N       E                     dE             d eps       ncg     rms          ort
SDA:   1    -0.130623160411E+03    0.71454E-01    0.00000E+00  8520   0.223E+00 0.000E+00
CGA:   2    -0.130661151586E+03   -0.37991E-01   -0.38010E-01  8520   0.869E-01 0.376E-03
CGA:   3    -0.130684984955E+03   -0.23833E-01   -0.23845E-01  8520   0.380E-01-0.199E-03
CGA:   4    -0.130691609112E+03   -0.66242E-02   -0.66228E-02  8520   0.918E-02-0.312E-04
CGA:   5    -0.130693953636E+03   -0.23445E-02   -0.23451E-02  8520   0.400E-02-0.172E-04
CGA:   6    -0.130695055381E+03   -0.11017E-02   -0.11020E-02  8520   0.165E-02-0.648E-05
CGA:   7    -0.130695492450E+03   -0.43707E-03   -0.43638E-03  8520   0.494E-03 0.144E-04
CGA:   8    -0.130695622711E+03   -0.13026E-03   -0.13177E-03  8520   0.124E-03-0.364E-04
CGA:   9    -0.130695654288E+03   -0.31578E-04   -0.31699E-04  8520   0.311E-04-0.243E-05
CGA:  10    -0.130695663267E+03   -0.89786E-05   -0.91253E-05  8520   0.928E-05-0.204E-05
CGA:  11    -0.130695666044E+03   -0.27773E-05   -0.28071E-05  8520   0.332E-05-0.322E-06
CGA:  12    -0.130695656273E+03    0.97714E-05   -0.53362E-05  8520   0.696E-04-0.119E-04
CGA:  13    -0.130695665097E+03   -0.88240E-05   -0.10526E-04  8520   0.984E-05 0.611E-05
CGA:  14    -0.130695668133E+03   -0.30360E-05   -0.29444E-05  8520   0.203E-05-0.651E-06
CGA:  15    -0.130695668908E+03   -0.77539E-06   -0.77571E-06  8520   0.730E-06-0.371E-06
  11 F= -.13069567E+03 E0= -.13069567E+03  d E =-.105397E-02  mag=     0.0000
       N       E                     dE             d eps       ncg     rms          ort
SDA:   1    -0.130692852476E+03    0.28157E-02    0.00000E+00  8520   0.882E-02 0.000E+00
CGA:   2    -0.130694347071E+03   -0.14946E-02   -0.15002E-02  8520   0.343E-02 0.217E-04
CGA:   3    -0.130695298012E+03   -0.95094E-03   -0.94836E-03  8520   0.152E-02-0.230E-04
CGA:   4    -0.130695561039E+03   -0.26303E-03   -0.26237E-03  8520   0.365E-03-0.316E-05
CGA:   5    -0.130695654431E+03   -0.93392E-04   -0.93026E-04  8520   0.160E-03-0.324E-05
CGA:   6    -0.130695698526E+03   -0.44095E-04   -0.43938E-04  8520   0.667E-04-0.188E-05
CGA:   7    -0.130695715416E+03   -0.16889E-04   -0.17051E-04  8520   0.192E-04 0.154E-05
CGA:   8    -0.130695721875E+03   -0.64592E-05   -0.62507E-05  8520   0.779E-05-0.554E-05
CGA:   9    -0.130695723154E+03   -0.12792E-05   -0.12785E-05  8520   0.201E-05-0.561E-08
CGA:  10    -0.130695723576E+03   -0.42227E-06   -0.44742E-06  8520   0.606E-06 0.201E-06
  12 F= -.13069572E+03 E0= -.13069572E+03  d E =-.110864E-02  mag=     0.0000
       N       E                     dE             d eps       ncg     rms          ort
SDA:   1    -0.130684226842E+03    0.11496E-01    0.00000E+00  8520   0.353E-01 0.000E+00
CGA:   2    -0.130690207013E+03   -0.59802E-02   -0.59922E-02  8520   0.137E-01 0.609E-04
CGA:   3    -0.130693971224E+03   -0.37642E-02   -0.37608E-02  8520   0.601E-02-0.541E-04
CGA:   4    -0.130695019811E+03   -0.10486E-02   -0.10473E-02  8520   0.145E-02-0.813E-05
CGA:   5    -0.130695390434E+03   -0.37062E-03   -0.37018E-03  8520   0.628E-03-0.671E-05
CGA:   6    -0.130695563655E+03   -0.17322E-03   -0.17306E-03  8520   0.262E-03-0.400E-05
CGA:   7    -0.130695631936E+03   -0.68281E-04   -0.68480E-04  8520   0.777E-04 0.340E-05
CGA:   8    -0.130695654573E+03   -0.22637E-04   -0.22253E-04  8520   0.228E-04-0.114E-04
CGA:   9    -0.130695659680E+03   -0.51069E-05   -0.50840E-05  8520   0.550E-05-0.431E-06
CGA:  10    -0.130695661310E+03   -0.16304E-05   -0.16250E-05  8520   0.173E-05-0.485E-06
CGA:  11    -0.130695661853E+03   -0.54256E-06   -0.54993E-06  8520   0.708E-06-0.197E-06
  13 F= -.13069566E+03 E0= -.13069566E+03  d E =-.104691E-02  mag=     0.0000
       N       E                     dE             d eps       ncg     rms          ort
SDA:   1    -0.130688604965E+03    0.70563E-02    0.00000E+00  8520   0.220E-01 0.000E+00
CGA:   2    -0.130692351419E+03   -0.37465E-02   -0.37445E-02  8520   0.862E-02-0.279E-04
CGA:   3    -0.130694682952E+03   -0.23315E-02   -0.23330E-02  8520   0.370E-02 0.424E-04
CGA:   4    -0.130695334918E+03   -0.65197E-03   -0.65277E-03  8520   0.895E-03 0.610E-05
CGA:   5    -0.130695562037E+03   -0.22712E-03   -0.22746E-03  8520   0.386E-03 0.738E-05
CGA:   6    -0.130695668940E+03   -0.10690E-03   -0.10700E-03  8520   0.158E-03 0.454E-05
CGA:   7    -0.130695712804E+03   -0.43863E-04   -0.43813E-04  8520   0.499E-04-0.264E-05
CGA:   8    -0.130695722217E+03   -0.94131E-05   -0.10070E-04  8520   0.964E-05 0.739E-05
CGA:   9    -0.130695724634E+03   -0.24168E-05   -0.25492E-05  8520   0.267E-05 0.224E-05
CGA:  10    -0.130695725580E+03   -0.94608E-06   -0.94608E-06  8520   0.959E-06 0.456E-07
  14 F= -.13069573E+03 E0= -.13069573E+03  d E =-.111064E-02  mag=     0.0000
       N       E                     dE             d eps       ncg     rms          ort
SDA:   1    -0.130645862296E+03    0.49862E-01    0.00000E+00  8520   0.192E+00 0.000E+00
CGA:   2    -0.130672386007E+03   -0.26524E-01   -0.26631E-01  8520   0.437E-01 0.624E-03
CGA:   3    -0.130686344110E+03   -0.13958E-01   -0.13962E-01  8520   0.314E-01-0.840E-04
CGA:   4    -0.130692465207E+03   -0.61211E-02   -0.61211E-02  8520   0.893E-02 0.719E-06
CGA:   5    -0.130694600070E+03   -0.21349E-02   -0.21392E-02  8520   0.319E-02 0.136E-03
CGA:   6    -0.130695400356E+03   -0.80029E-03   -0.80221E-03  8520   0.110E-02 0.884E-04
CGA:   7    -0.130695695310E+03   -0.29495E-03   -0.29535E-03  8520   0.318E-03 0.490E-04
CGA:   8    -0.130695771776E+03   -0.76466E-04   -0.77380E-04  8520   0.644E-04 0.261E-04
CGA:   9    -0.130695787914E+03   -0.16138E-04   -0.16529E-04  8520   0.166E-04 0.135E-04
CGA:  10    -0.130695791226E+03   -0.33128E-05   -0.38685E-05  8520   0.537E-05 0.777E-05
CGA:  11    -0.130695791785E+03   -0.55896E-06   -0.10913E-05  8520   0.251E-05 0.433E-05
  15 F= -.13069579E+03 E0= -.13069579E+03  d E =-.662057E-04  mag=    -0.0000
       N       E                     dE             d eps       ncg     rms          ort
SDA:   1    -0.130687590017E+03    0.82012E-02    0.00000E+00  8520   0.314E-01 0.000E+00
CGA:   2    -0.130692004822E+03   -0.44148E-02   -0.43931E-02  8520   0.728E-02-0.215E-03
CGA:   3    -0.130694281432E+03   -0.22766E-02   -0.22743E-02  8520   0.508E-02 0.338E-04
CGA:   4    -0.130695281218E+03   -0.99979E-03   -0.99983E-03  8520   0.145E-02 0.707E-06
CGA:   5    -0.130695647240E+03   -0.36602E-03   -0.36649E-03  8520   0.564E-03-0.582E-04
CGA:   6    -0.130695787864E+03   -0.14062E-03   -0.14118E-03  8520   0.211E-03-0.368E-04
CGA:   7    -0.130695843050E+03   -0.55186E-04   -0.56043E-04  8520   0.686E-04-0.229E-04
CGA:   8    -0.130695859357E+03   -0.16307E-04   -0.16600E-04  8520   0.188E-04-0.126E-04
CGA:   9    -0.130695864221E+03   -0.48646E-05   -0.59605E-05  8520   0.113E-04-0.790E-05
CGA:  10    -0.130695864979E+03   -0.75710E-06   -0.38947E-05  8520   0.180E-04-0.933E-05
CGA:  11    -0.130695868153E+03   -0.31748E-05   -0.33347E-05  8520   0.237E-05 0.182E-05
CGA:  12    -0.130695868355E+03   -0.20149E-06   -0.38419E-06  8520   0.101E-05 0.151E-05
  16 F= -.13069587E+03 E0= -.13069587E+03  d E =-.142775E-03  mag=    -0.0000
