unknown system                          
           1
     2.873988   -0.000004   -0.000003
    -0.000007    4.602672    0.000017
    -0.000007    0.000035    9.358284
   Mn   O 
   4   8
Direct configuration=     1
   0.24999997  0.01657458  0.86498272
   0.75000044  0.98347509  0.13502990
   0.75000396  0.51652950  0.63502687
   0.24999982  0.48342323  0.36498065
   0.25000110  0.70644893  0.53785004
   0.74999970  0.20650615  0.96215373
   0.24999897  0.79355036  0.03785363
   0.75000022  0.29348800  0.46215526
   0.24999840  0.19639349  0.21683188
   0.25000023  0.30361118  0.71683368
   0.74999983  0.69634440  0.28315235
   0.74999735  0.80365610  0.78315027
unknown system                          
           1
     2.823629   -0.000001   -0.000001
    -0.000002    4.522124    0.000013
    -0.000000    0.000026    9.178015
   Mn   O 
   4   8
Direct configuration=     2
   0.25000007  0.01641058  0.86499147
   0.75000077  0.98360558  0.13500924
   0.75000234  0.51639440  0.63500978
   0.25000122  0.48358491  0.36499313
   0.25000087  0.70469915  0.53804085
   0.74999947  0.20474733  0.96196182
   0.24999765  0.79530141  0.03804520
   0.74999899  0.29525023  0.46196174
   0.24999964  0.19517063  0.21675714
   0.25000075  0.30483464  0.71675803
   0.74999961  0.69513021  0.28323679
   0.74999862  0.80487194  0.78323582
unknown system                          
           1
     2.851993   -0.000002   -0.000002
    -0.000005    4.567491    0.000015
    -0.000004    0.000031    9.279547
   Mn   O 
   4   8
Direct configuration=     3
   0.25000001  0.01650459  0.86498645
   0.75000058  0.98353077  0.13502111
   0.75000327  0.51647185  0.63501960
   0.25000042  0.48349222  0.36498596
   0.25000100  0.70570222  0.53793127
   0.74999960  0.20575559  0.96207203
   0.24999841  0.79429761  0.03793518
   0.74999970  0.29424002  0.46207288
   0.24999893  0.19587164  0.21680006
   0.25000045  0.30413328  0.71680148
   0.74999974  0.69582626  0.28318830
   0.74999789  0.80417495  0.78318669
unknown system                          
           1
     2.851655   -0.000002   -0.000002
    -0.000005    4.566950    0.000015
    -0.000004    0.000031    9.278337
   Mn   O 
   4   8
Direct configuration=     4
   0.25000001  0.01650348  0.86498651
   0.75000058  0.98353165  0.13502097
   0.75000326  0.51647093  0.63501948
   0.25000043  0.48349332  0.36498605
   0.25000100  0.70569039  0.53793256
   0.74999960  0.20574369  0.96207074
   0.24999840  0.79430945  0.03793648
   0.74999969  0.29425194  0.46207157
   0.24999894  0.19586337  0.21679956
   0.25000046  0.30414155  0.71680097
   0.74999974  0.69581805  0.28318887
   0.74999790  0.80418317  0.78318727
unknown system                          
           1
     2.854826   -0.000001   -0.000001
    -0.000002    4.552300    0.000012
    -0.000000    0.000025    9.258072
   Mn   O 
   4   8
Direct configuration=     5
   0.25000112  0.01653849  0.86464120
   0.75000168  0.98348332  0.13536169
   0.75000346  0.51651798  0.63536065
   0.25000217  0.48345857  0.36464100
   0.25000005  0.70764885  0.53791946
   0.74999866  0.20769478  0.96208161
   0.24999722  0.79235114  0.03792244
   0.74999842  0.29230251  0.46208251
   0.24999930  0.19603932  0.21710248
   0.25000026  0.30396481  0.71710359
   0.74999923  0.69600051  0.28289281
   0.74999843  0.80400072  0.78289156
unknown system                          
           1
     2.856228   -0.000000   -0.000000
    -0.000001    4.545819    0.000011
     0.000002    0.000022    9.249106
   Mn   O 
   4   8
Direct configuration=     6
   0.25000161  0.01655403  0.86448809
   0.75000217  0.98346186  0.13551276
   0.75000354  0.51653886  0.63551193
   0.25000293  0.48344315  0.36448801
   0.24999963  0.70851813  0.53791365
   0.74999825  0.20856078  0.96208643
   0.24999671  0.79148193  0.03791621
   0.74999785  0.29143724  0.46208737
   0.24999946  0.19611742  0.21723679
   0.25000017  0.30388636  0.71723777
   0.74999900  0.69608150  0.28276154
   0.74999867  0.80391973  0.78276045
unknown system                          
           1
     2.858421   -0.000000   -0.000000
    -0.000001    4.531674    0.000007
     0.000002    0.000013    9.244575
   Mn   O 
   4   8
Direct configuration=     7
   0.25000214  0.01693049  0.86515794
   0.75000196  0.98308063  0.13484301
   0.75000275  0.51691979  0.63484273
   0.25000304  0.48306856  0.36515779
   0.24999880  0.71011330  0.53802592
   0.74999761  0.21013796  0.96197396
   0.24999697  0.78988661  0.03802706
   0.74999781  0.28986100  0.46197496
   0.24999973  0.19592189  0.21727334
   0.25000011  0.30408020  0.71727417
   0.74999950  0.69591469  0.28272554
   0.74999958  0.80408588  0.78272459
unknown system                          
           1
     2.858720   -0.000000   -0.000000
    -0.000001    4.529747    0.000006
     0.000002    0.000012    9.243957
   Mn   O 
   4   8
Direct configuration=     8
   0.25000221  0.01698195  0.86524926
   0.75000193  0.98302852  0.13475170
   0.75000265  0.51697185  0.63475150
   0.25000306  0.48301735  0.36524910
   0.24999869  0.71033133  0.53804122
   0.74999752  0.21035353  0.96195862
   0.24999700  0.78966856  0.03804217
   0.74999780  0.28964555  0.46195964
   0.24999976  0.19589517  0.21727832
   0.25000010  0.30410669  0.71727913
   0.74999957  0.69589189  0.28272063
   0.74999971  0.80410859  0.78271970
unknown system                          
           1
     2.858153   -0.000000   -0.000000
    -0.000001    4.512196    0.000001
     0.000002    0.000002    9.265659
   Mn   O 
   4   8
Direct configuration=     9
   0.25000173  0.01711993  0.86546517
   0.75000135  0.98288451  0.13453478
   0.75000147  0.51711593  0.63453523
   0.25000215  0.48287993  0.36546576
   0.24999829  0.71161495  0.53797488
   0.74999771  0.21161496  0.96202419
   0.24999808  0.78838485  0.03797469
   0.74999850  0.28838510  0.46202471
   0.24999989  0.19515749  0.21692221
   0.24999992  0.30484276  0.71692275
   0.75000051  0.69517357  0.28307851
   0.75000040  0.80482702  0.78307813
unknown system                          
           1
     2.858052   -0.000000   -0.000000
    -0.000001    4.509076    0.000000
     0.000002    0.000000    9.269517
   Mn   O 
   4   8
Direct configuration=    10
   0.25000164  0.01714456  0.86550346
   0.75000125  0.98285881  0.13449630
   0.75000126  0.51714164  0.63449688
   0.25000199  0.48285540  0.36550418
   0.24999822  0.71184402  0.53796311
   0.74999775  0.21184006  0.96203582
   0.24999827  0.78815576  0.03796272
   0.74999862  0.28816016  0.46203625
   0.24999992  0.19502585  0.21685905
   0.24999989  0.30497412  0.71685955
   0.75000067  0.69504538  0.28314198
   0.75000052  0.80495523  0.78314170
unknown system                          
           1
     2.857570    0.000001   -0.000000
     0.000000    4.501063   -0.000001
     0.000003   -0.000002    9.280404
   Mn   O 
   4   8
Direct configuration=    11
   0.25000215  0.01767135  0.86546239
   0.75000213  0.98231912  0.13453521
   0.75000201  0.51768075  0.63453548
   0.25000266  0.48232885  0.36546192
   0.24999823  0.71176285  0.53767608
   0.74999823  0.21175806  0.96232213
   0.24999831  0.78823727  0.03767533
   0.74999855  0.28824215  0.46232257
   0.24999934  0.19521972  0.21683925
   0.24999908  0.30478067  0.71683928
   0.74999989  0.69522479  0.28316581
   0.74999942  0.80477542  0.78316553
unknown system                          
           1
     2.857475    0.000001   -0.000000
     0.000001    4.499472   -0.000001
     0.000003   -0.000002    9.282567
   Mn   O 
   4   8
Direct configuration=    12
   0.25000225  0.01777617  0.86545425
   0.75000231  0.98221174  0.13454293
   0.75000215  0.51778802  0.63454314
   0.25000280  0.48222408  0.36545354
   0.24999824  0.71174670  0.53761913
   0.74999833  0.21174175  0.96237893
   0.24999831  0.78825349  0.03761832
   0.74999853  0.28825846  0.46237937
   0.24999922  0.19525830  0.21683532
   0.24999891  0.30474218  0.71683526
   0.74999974  0.69526049  0.28317054
   0.74999920  0.80473964  0.78317026
unknown system                          
           1
     2.857283    0.000001    0.000000
     0.000001    4.496289   -0.000001
     0.000003   -0.000003    9.286892
   Mn   O 
   4   8
Direct configuration=    13
   0.25000245  0.01798588  0.86543796
   0.75000266  0.98199689  0.13455837
   0.75000245  0.51800264  0.63455846
   0.25000306  0.48201446  0.36543678
   0.24999824  0.71171438  0.53750527
   0.74999852  0.21170910  0.96249251
   0.24999833  0.78828594  0.03750431
   0.74999850  0.28829110  0.46249295
   0.24999899  0.19533548  0.21682747
   0.24999859  0.30466517  0.71682722
   0.74999943  0.69533191  0.28317999
   0.74999877  0.80466806  0.78317971
unknown system                          
           1
     2.857434    0.000001   -0.000000
     0.000001    4.498800   -0.000001
     0.000003   -0.000003    9.283479
   Mn   O 
   4   8
Direct configuration=    14
   0.25000229  0.01782028  0.86545081
   0.75000239  0.98216654  0.13454620
   0.75000222  0.51783316  0.63454638
   0.25000285  0.48217998  0.36545000
   0.24999824  0.71173990  0.53759508
   0.74999837  0.21173488  0.96240293
   0.24999832  0.78826032  0.03759423
   0.74999853  0.28826532  0.46240337
   0.24999918  0.19527453  0.21683367
   0.24999885  0.30472598  0.71683356
   0.74999967  0.69527551  0.28317253
   0.74999911  0.80472458  0.78317226
unknown system                          
           1
     2.857565    0.000000   -0.000000
    -0.000000    4.498070   -0.000001
     0.000002   -0.000003    9.288322
   Mn   O 
   4   8
Direct configuration=    15
   0.25000207  0.01816998  0.86566563
   0.75000184  0.98183391  0.13433465
   0.75000201  0.51816622  0.63433473
   0.25000210  0.48183037  0.36566691
   0.24999837  0.71182160  0.53747883
   0.74999847  0.21181209  0.96252100
   0.24999874  0.78817813  0.03747891
   0.74999884  0.28818847  0.46252043
   0.24999940  0.19534078  0.21678883
   0.24999927  0.30465851  0.71678920
   0.74999960  0.69534890  0.28321073
   0.74999929  0.80465205  0.78321117
unknown system                          
           1
     2.857513    0.000001   -0.000000
     0.000000    4.498365   -0.000001
     0.000002   -0.000003    9.286365
   Mn   O 
   4   8
Direct configuration=    16
   0.25000216  0.01802869  0.86557889
   0.75000206  0.98196831  0.13442006
   0.75000209  0.51803165  0.63442019
   0.25000240  0.48197163  0.36557933
   0.24999832  0.71178859  0.53752577
   0.74999843  0.21178089  0.96247332
   0.24999857  0.78821134  0.03752547
   0.74999871  0.28821952  0.46247316
   0.24999931  0.19531401  0.21680694
   0.24999910  0.30468577  0.71680711
   0.74999963  0.69531925  0.28319531
   0.74999922  0.80468136  0.78319546
