unknown system                          
   1.00000000000000     
     0.000002    2.035558    2.035558
     2.035558    0.000002    2.035558
     2.035558    2.035558    0.000002
   Li   F 
     1     1
Direct
  0.000000  0.000000  0.000000
  0.500000  0.500000  0.500000
 
   48   48   48
  180.52      174.85      158.80      135.06      107.29      79.270      54.137      33.884      19.264      9.9574    
  4.9031      2.6756      1.8309      1.4136      1.1984      1.0977      1.0624      1.0640      1.0849      1.1136    
  1.1422      1.1663      1.1838      1.1941      1.1975      1.1941      1.1838      1.1663      1.1422      1.1136    
  1.0849      1.0640      1.0624      1.0977      1.1984      1.4136      1.8309      2.6756      4.9031      9.9574    
  19.264      33.884      54.137      79.270      107.29      135.06      158.80      174.85      174.85      163.99    
  144.13      118.47      90.771      64.490      42.169      25.148      13.597      6.7901      3.4543      2.1383    
  1.5784      1.2834      1.1373      1.0760      1.0634      1.0775      1.1042      1.1343      1.1615      1.1828    
  1.1970      1.2039      1.2039      1.1970      1.1828      1.1615      1.1343      1.1042      1.0775      1.0634    
  1.0760      1.1372      1.2834      1.5784      2.1383      3.4543      6.7901      13.597      25.147      42.169    
  64.490      90.771      118.47      144.13      163.99      174.85      158.80      144.13      122.43      97.076    
  71.534      48.675      30.326      17.163      8.8666      4.4308      2.5132      1.7680      1.3868      1.1914    
  1.1020      1.0739      1.0804      1.1049      1.1363      1.1671      1.1929      1.2116      1.2227      1.2263    
  1.2226      1.2116      1.1929      1.1671      1.1363      1.1049      1.0804      1.0739      1.1020      1.1913    
  1.3868      1.7680      2.5132      4.4309      8.8666      17.163      30.326      48.675      71.534      97.075    
  122.43      144.13      158.80      163.99      135.06      118.47      97.076      74.033      52.258      33.885    
  20.019      10.765      5.4526      2.9456      1.9653      1.4999      1.2548      1.1369      1.0928      1.0915    
  1.1137      1.1465      1.1812      1.2122      1.2363      1.2524      1.2603      1.2603      1.2524      1.2363    
  1.2122      1.1812      1.1465      1.1137      1.0915      1.0928      1.1369      1.2548      1.4999      1.9653    
  2.9457      5.4527      10.765      20.019      33.885      52.258      74.033      97.075      118.47      135.06    
  144.13      144.13      107.29      90.771      71.534      52.258      35.154      21.610      12.101      6.3077    
  3.3647      2.1492      1.6104      1.3207      1.1762      1.1171      1.1082      1.1281      1.1626      1.2016    
  1.2384      1.2688      1.2910      1.3042      1.3086      1.3042      1.2910      1.2688      1.2384      1.2016    
  1.1626      1.1282      1.1082      1.1170      1.1762      1.3207      1.6104      2.1492      3.3648      6.3077    
  12.101      21.610      35.154      52.258      71.534      90.771      107.29      118.47      122.43      118.47    
  79.270      64.490      48.675      33.885      21.610      12.582      6.7956      3.6721      2.2984      1.7040    
  1.3808      1.2148      1.1429      1.1276      1.1458      1.1821      1.2256      1.2688      1.3065      1.3357    
  1.3554      1.3652      1.3652      1.3554      1.3357      1.3064      1.2688      1.2257      1.1821      1.1458    
  1.1276      1.1429      1.2147      1.3808      1.7040      2.2985      3.6722      6.7957      12.582      21.610    
  33.885      48.675      64.490      79.270      90.771      97.075      97.075      90.771      54.137      42.169    
  30.326      20.019      12.101      6.7956      3.7852      2.3839      1.7669      1.4268      1.2472      1.1665    
  1.1467      1.1639      1.2024      1.2507      1.3006      1.3461      1.3835      1.4109      1.4274      1.4329    
  1.4274      1.4109      1.3835      1.3461      1.3006      1.2508      1.2024      1.1640      1.1467      1.1665    
  1.2472      1.4268      1.7669      2.3839      3.7853      6.7957      12.101      20.019      30.326      42.169    
  54.137      64.490      71.534      74.033      71.534      64.490      33.884      25.148      17.163      10.765    
  6.3077      3.6721      2.3839      1.7891      1.4517      1.2689      1.1845      1.1627      1.1801      1.2212    
  1.2744      1.3311      1.3848      1.4310      1.4671      1.4916      1.5040      1.5040      1.4916      1.4671    
  1.4310      1.3848      1.3311      1.2744      1.2212      1.1801      1.1627      1.1845      1.2689      1.4517    
  1.7891      2.3839      3.6721      6.3077      10.765      17.163      25.148      33.884      42.169      48.675    
  52.258      52.258      48.675      42.169      19.264      13.597      8.8666      5.4526      3.3647      2.2984    
  1.7669      1.4517      1.2765      1.1943      1.1733      1.1922      1.2363      1.2943      1.3577      1.4196    
  1.4750      1.5206      1.5543      1.5748      1.5817      1.5748      1.5543      1.5206      1.4750      1.4196    
  1.3577      1.2943      1.2363      1.1922      1.1733      1.1943      1.2765      1.4517      1.7669      2.2984    
  3.3647      5.4527      8.8667      13.598      19.264      25.148      30.326      33.885      35.154      33.885    
  30.326      25.147      9.9574      6.7901      4.4308      2.9456      2.1492      1.7040      1.4268      1.2689    
  1.1943      1.1770      1.1987      1.2461      1.3087      1.3783      1.4481      1.5126      1.5680      1.6116    
  1.6416      1.6568      1.6568      1.6416      1.6116      1.5680      1.5126      1.4481      1.3783      1.3087    
  1.2461      1.1987      1.1770      1.1943      1.2689      1.4267      1.7039      2.1491      2.9456      4.4308    
  6.7902      9.9575      13.598      17.163      20.019      21.610      21.610      20.019      17.163      13.597    
  4.9031      3.4543      2.5132      1.9653      1.6104      1.3808      1.2472      1.1845      1.1733      1.1987    
  1.2494      1.3163      1.3914      1.4682      1.5413      1.6064      1.6603      1.7005      1.7253      1.7337    
  1.7253      1.7005      1.6603      1.6064      1.5413      1.4682      1.3914      1.3163      1.2494      1.1987    
  1.1733      1.1845      1.2472      1.3808      1.6103      1.9652      2.5131      3.4542      4.9031      6.7902    
  8.8667      10.765      12.101      12.582      12.101      10.765      8.8666      6.7901      2.6756      2.1383    
  1.7680      1.4999      1.3207      1.2148      1.1665      1.1627      1.1922      1.2461      1.3163      1.3958    
  1.4786      1.5593      1.6334      1.6974      1.7481      1.7834      1.8015      1.8015      1.7834      1.7481    
  1.6974      1.6334      1.5593      1.4786      1.3958      1.3163      1.2461      1.1923      1.1627      1.1665    
  1.2147      1.3207      1.4998      1.7679      2.1381      2.6755      3.4542      4.4308      5.4527      6.3077    
  6.7957      6.7957      6.3077      5.4527      4.4309      3.4543      1.8309      1.5784      1.3868      1.2548    
  1.1762      1.1429      1.1467      1.1801      1.2363      1.3087      1.3914      1.4786      1.5654      1.6474    
  1.7205      1.7816      1.8276      1.8563      1.8661      1.8563      1.8277      1.7816      1.7205      1.6473    
  1.5654      1.4786      1.3914      1.3087      1.2363      1.1802      1.1467      1.1429      1.1762      1.2548    
  1.3867      1.5783      1.8308      2.1381      2.5131      2.9456      3.3647      3.6721      3.7853      3.6722    
  3.3648      2.9457      2.5132      2.1383      1.4136      1.2834      1.1914      1.1369      1.1171      1.1276    
  1.1639      1.2212      1.2943      1.3783      1.4682      1.5593      1.6474      1.7284      1.7989      1.8553    
  1.8949      1.9153      1.9153      1.8949      1.8554      1.7989      1.7284      1.6473      1.5593      1.4682    
  1.3783      1.2944      1.2212      1.1640      1.1277      1.1171      1.1370      1.1914      1.2833      1.4135    
  1.5783      1.7679      1.9652      2.1491      2.2984      2.3839      2.3839      2.2985      2.1492      1.9653    
  1.7680      1.5784      1.1984      1.1373      1.1020      1.0928      1.1082      1.1458      1.2024      1.2744    
  1.3577      1.4481      1.5413      1.6334      1.7205      1.7989      1.8648      1.9149      1.9462      1.9569    
  1.9462      1.9149      1.8648      1.7989      1.7205      1.6334      1.5413      1.4481      1.3577      1.2744    
  1.2024      1.1458      1.1083      1.0929      1.1021      1.1373      1.1985      1.2833      1.3867      1.4998    
  1.6103      1.7039      1.7669      1.7891      1.7669      1.7040      1.6104      1.4999      1.3868      1.2834    
  1.0977      1.0760      1.0739      1.0915      1.1281      1.1821      1.2507      1.3311      1.4196      1.5126    
  1.6064      1.6974      1.7816      1.8553      1.9149      1.9567      1.9784      1.9784      1.9567      1.9148    
  1.8553      1.7816      1.6974      1.6064      1.5126      1.4196      1.3311      1.2507      1.1821      1.1282    
  1.0916      1.0740      1.0761      1.0978      1.1373      1.1914      1.2548      1.3207      1.3808      1.4267    
  1.4517      1.4517      1.4268      1.3808      1.3207      1.2548      1.1913      1.1372      1.0624      1.0634    
  1.0804      1.1137      1.1626      1.2256      1.3006      1.3848      1.4750      1.5680      1.6603      1.7481    
  1.8276      1.8949      1.9462      1.9784      1.9894      1.9784      1.9462      1.8949      1.8276      1.7481    
  1.6603      1.5680      1.4750      1.3847      1.3006      1.2256      1.1626      1.1137      1.0804      1.0635    
  1.0625      1.0761      1.1021      1.1370      1.1762      1.2147      1.2472      1.2689      1.2765      1.2689    
  1.2472      1.2147      1.1762      1.1369      1.1020      1.0760      1.0640      1.0775      1.1049      1.1465    
  1.2016      1.2688      1.3461      1.4310      1.5206      1.6116      1.7005      1.7834      1.8563      1.9153    
  1.9569      1.9784      1.9784      1.9569      1.9153      1.8563      1.7834      1.7005      1.6116      1.5206    
  1.4310      1.3461      1.2687      1.2015      1.1465      1.1049      1.0775      1.0640      1.0635      1.0740    
  1.0929      1.1171      1.1429      1.1665      1.1845      1.1943      1.1943      1.1845      1.1665      1.1429    
  1.1170      1.0928      1.0739      1.0634      1.0849      1.1042      1.1363      1.1812      1.2384      1.3065    
  1.3835      1.4671      1.5543      1.6416      1.7253      1.8015      1.8661      1.9153      1.9462      1.9567    
  1.9462      1.9153      1.8660      1.8015      1.7253      1.6416      1.5543      1.4671      1.3835      1.3064    
  1.2383      1.1811      1.1362      1.1042      1.0849      1.0775      1.0804      1.0916      1.1083      1.1277    
  1.1467      1.1627      1.1733      1.1770      1.1733      1.1627      1.1467      1.1276      1.1082      1.0915    
  1.0804      1.0775      1.1136      1.1343      1.1671      1.2122      1.2688      1.3357      1.4109      1.4916    
  1.5748      1.6568      1.7337      1.8015      1.8563      1.8949      1.9149      1.9148      1.8949      1.8563    
  1.8015      1.7337      1.6568      1.5748      1.4916      1.4109      1.3357      1.2688      1.2121      1.1670    
  1.1342      1.1135      1.1042      1.1049      1.1137      1.1282      1.1458      1.1640      1.1802      1.1923    
  1.1987      1.1987      1.1922      1.1801      1.1640      1.1458      1.1282      1.1137      1.1049      1.1042    
  1.1422      1.1615      1.1929      1.2363      1.2910      1.3554      1.4274      1.5040      1.5817      1.6568    
  1.7253      1.7834      1.8277      1.8554      1.8648      1.8553      1.8276      1.7834      1.7253      1.6568    
  1.5817      1.5040      1.4274      1.3554      1.2910      1.2363      1.1928      1.1614      1.1421      1.1342    
  1.1362      1.1465      1.1626      1.1821      1.2024      1.2212      1.2363      1.2461      1.2494      1.2461    
  1.2363      1.2212      1.2024      1.1821      1.1626      1.1465      1.1363      1.1343      1.1663      1.1828    
  1.2116      1.2524      1.3042      1.3652      1.4329      1.5040      1.5748      1.6416      1.7005      1.7481    
  1.7816      1.7989      1.7989      1.7816      1.7481      1.7005      1.6416      1.5748      1.5040      1.4329    
  1.3653      1.3042      1.2524      1.2116      1.1828      1.1663      1.1614      1.1670      1.1811      1.2015    
  1.2256      1.2507      1.2744      1.2944      1.3087      1.3163      1.3163      1.3087      1.2943      1.2744    
  1.2508      1.2257      1.2016      1.1812      1.1671      1.1615      1.1838      1.1970      1.2227      1.2603    
  1.3086      1.3652      1.4274      1.4916      1.5543      1.6116      1.6603      1.6974      1.7205      1.7284    
  1.7205      1.6974      1.6603      1.6116      1.5543      1.4916      1.4274      1.3653      1.3086      1.2604    
  1.2227      1.1970      1.1838      1.1828      1.1928      1.2121      1.2383      1.2687      1.3006      1.3311    
  1.3577      1.3783      1.3914      1.3958      1.3914      1.3783      1.3577      1.3311      1.3006      1.2688    
  1.2384      1.2122      1.1929      1.1828      1.1941      1.2039      1.2263      1.2603      1.3042      1.3554    
  1.4109      1.4671      1.5206      1.5680      1.6064      1.6334      1.6473      1.6473      1.6334      1.6064    
  1.5680      1.5206      1.4671      1.4109      1.3554      1.3042      1.2604      1.2264      1.2040      1.1942    
  1.1970      1.2116      1.2363      1.2688      1.3064      1.3461      1.3847      1.4196      1.4481      1.4682    
  1.4786      1.4786      1.4682      1.4481      1.4196      1.3848      1.3461      1.3064      1.2688      1.2363    
  1.2116      1.1970      1.1975      1.2039      1.2226      1.2524      1.2910      1.3357      1.3835      1.4310    
  1.4750      1.5126      1.5413      1.5593      1.5654      1.5593      1.5413      1.5126      1.4750      1.4310    
  1.3835      1.3357      1.2910      1.2524      1.2227      1.2040      1.1976      1.2040      1.2227      1.2524    
  1.2910      1.3357      1.3835      1.4310      1.4750      1.5126      1.5413      1.5593      1.5654      1.5593    
  1.5413      1.5126      1.4750      1.4310      1.3835      1.3357      1.2910      1.2524      1.2226      1.2039    
  1.1941      1.1970      1.2116      1.2363      1.2688      1.3064      1.3461      1.3848      1.4196      1.4481    
  1.4682      1.4786      1.4786      1.4682      1.4481      1.4196      1.3847      1.3461      1.3064      1.2688    
  1.2363      1.2116      1.1970      1.1942      1.2040      1.2264      1.2604      1.3042      1.3554      1.4109    
  1.4671      1.5206      1.5680      1.6064      1.6334      1.6473      1.6473      1.6334      1.6064      1.5680    
  1.5206      1.4671      1.4109      1.3554      1.3042      1.2603      1.2263      1.2039      1.1838      1.1828    
  1.1929      1.2122      1.2384      1.2688      1.3006      1.3311      1.3577      1.3783      1.3914      1.3958    
  1.3914      1.3783      1.3577      1.3311      1.3006      1.2687      1.2383      1.2121      1.1928      1.1828    
  1.1838      1.1970      1.2227      1.2604      1.3086      1.3653      1.4274      1.4916      1.5543      1.6116    
  1.6603      1.6974      1.7205      1.7284      1.7205      1.6974      1.6603      1.6116      1.5543      1.4916    
  1.4274      1.3652      1.3086      1.2603      1.2227      1.1970      1.1663      1.1615      1.1671      1.1812    
  1.2016      1.2257      1.2508      1.2744      1.2943      1.3087      1.3163      1.3163      1.3087      1.2944    
  1.2744      1.2507      1.2256      1.2015      1.1811      1.1670      1.1614      1.1663      1.1828      1.2116    
  1.2524      1.3042      1.3653      1.4329      1.5040      1.5748      1.6416      1.7005      1.7481      1.7816    
  1.7989      1.7989      1.7816      1.7481      1.7005      1.6416      1.5748      1.5040      1.4329      1.3652    
  1.3042      1.2524      1.2116      1.1828      1.1422      1.1343      1.1363      1.1465      1.1626      1.1821    
  1.2024      1.2212      1.2363      1.2461      1.2494      1.2461      1.2363      1.2212      1.2024      1.1821    
  1.1626      1.1465      1.1362      1.1342      1.1421      1.1614      1.1928      1.2363      1.2910      1.3554    
  1.4274      1.5040      1.5817      1.6568      1.7253      1.7834      1.8276      1.8553      1.8648      1.8554    
  1.8277      1.7834      1.7253      1.6568      1.5817      1.5040      1.4274      1.3554      1.2910      1.2363    
  1.1929      1.1615      1.1136      1.1042      1.1049      1.1137      1.1282      1.1458      1.1640      1.1801    
  1.1922      1.1987      1.1987      1.1923      1.1802      1.1640      1.1458      1.1282      1.1137      1.1049    
  1.1042      1.1135      1.1342      1.1670      1.2121      1.2688      1.3357      1.4109      1.4916      1.5748    
  1.6568      1.7337      1.8015      1.8563      1.8949      1.9148      1.9149      1.8949      1.8563      1.8015    
  1.7337      1.6568      1.5748      1.4916      1.4109      1.3357      1.2688      1.2122      1.1671      1.1343    
  1.0849      1.0775      1.0804      1.0915      1.1082      1.1276      1.1467      1.1627      1.1733      1.1770    
  1.1733      1.1627      1.1467      1.1277      1.1083      1.0916      1.0804      1.0775      1.0849      1.1042    
  1.1362      1.1811      1.2383      1.3064      1.3835      1.4671      1.5543      1.6416      1.7253      1.8015    
  1.8660      1.9153      1.9462      1.9567      1.9462      1.9153      1.8661      1.8015      1.7253      1.6416    
  1.5543      1.4671      1.3835      1.3065      1.2384      1.1812      1.1363      1.1042      1.0640      1.0634    
  1.0739      1.0928      1.1170      1.1429      1.1665      1.1845      1.1943      1.1943      1.1845      1.1665    
  1.1429      1.1171      1.0929      1.0740      1.0635      1.0640      1.0775      1.1049      1.1465      1.2015    
  1.2687      1.3461      1.4310      1.5206      1.6116      1.7005      1.7834      1.8563      1.9153      1.9569    
  1.9784      1.9784      1.9569      1.9153      1.8563      1.7834      1.7005      1.6116      1.5206      1.4310    
  1.3461      1.2688      1.2016      1.1465      1.1049      1.0775      1.0624      1.0760      1.1020      1.1369    
  1.1762      1.2147      1.2472      1.2689      1.2765      1.2689      1.2472      1.2147      1.1762      1.1370    
  1.1021      1.0761      1.0625      1.0635      1.0804      1.1137      1.1626      1.2256      1.3006      1.3847    
  1.4750      1.5680      1.6603      1.7481      1.8276      1.8949      1.9462      1.9784      1.9894      1.9784    
  1.9462      1.8949      1.8276      1.7481      1.6603      1.5680      1.4750      1.3848      1.3006      1.2256    
  1.1626      1.1137      1.0804      1.0634      1.0977      1.1372      1.1913      1.2548      1.3207      1.3808    
  1.4268      1.4517      1.4517      1.4267      1.3808      1.3207      1.2548      1.1914      1.1373      1.0978    
  1.0761      1.0740      1.0916      1.1282      1.1821      1.2507      1.3311      1.4196      1.5126      1.6064    
  1.6974      1.7816      1.8553      1.9148      1.9567      1.9784      1.9784      1.9567      1.9149      1.8553    
  1.7816      1.6974      1.6064      1.5126      1.4196      1.3311      1.2507      1.1821      1.1281      1.0915    
  1.0739      1.0760      1.1984      1.2834      1.3868      1.4999      1.6104      1.7040      1.7669      1.7891    
  1.7669      1.7039      1.6103      1.4998      1.3867      1.2833      1.1985      1.1373      1.1021      1.0929    
  1.1083      1.1458      1.2024      1.2744      1.3577      1.4481      1.5413      1.6334      1.7205      1.7989    
  1.8648      1.9149      1.9462      1.9569      1.9462      1.9149      1.8648      1.7989      1.7205      1.6334    
  1.5413      1.4481      1.3577      1.2744      1.2024      1.1458      1.1082      1.0928      1.1020      1.1373    
  1.4136      1.5784      1.7680      1.9653      2.1492      2.2985      2.3839      2.3839      2.2984      2.1491    
  1.9652      1.7679      1.5783      1.4135      1.2833      1.1914      1.1370      1.1171      1.1277      1.1640    
  1.2212      1.2944      1.3783      1.4682      1.5593      1.6473      1.7284      1.7989      1.8554      1.8949    
  1.9153      1.9153      1.8949      1.8553      1.7989      1.7284      1.6474      1.5593      1.4682      1.3783    
  1.2943      1.2212      1.1639      1.1276      1.1171      1.1369      1.1914      1.2834      1.8309      2.1383    
  2.5132      2.9457      3.3648      3.6722      3.7853      3.6721      3.3647      2.9456      2.5131      2.1381    
  1.8308      1.5783      1.3867      1.2548      1.1762      1.1429      1.1467      1.1802      1.2363      1.3087    
  1.3914      1.4786      1.5654      1.6473      1.7205      1.7816      1.8277      1.8563      1.8661      1.8563    
  1.8276      1.7816      1.7205      1.6474      1.5654      1.4786      1.3914      1.3087      1.2363      1.1801    
  1.1467      1.1429      1.1762      1.2548      1.3868      1.5784      2.6756      3.4543      4.4309      5.4527    
  6.3077      6.7957      6.7957      6.3077      5.4527      4.4308      3.4542      2.6755      2.1381      1.7679    
  1.4998      1.3207      1.2147      1.1665      1.1627      1.1923      1.2461      1.3163      1.3958      1.4786    
  1.5593      1.6334      1.6974      1.7481      1.7834      1.8015      1.8015      1.7834      1.7481      1.6974    
  1.6334      1.5593      1.4786      1.3958      1.3163      1.2461      1.1922      1.1627      1.1665      1.2148    
  1.3207      1.4999      1.7680      2.1383      4.9031      6.7901      8.8666      10.765      12.101      12.582    
  12.101      10.765      8.8667      6.7902      4.9031      3.4542      2.5131      1.9652      1.6103      1.3808    
  1.2472      1.1845      1.1733      1.1987      1.2494      1.3163      1.3914      1.4682      1.5413      1.6064    
  1.6603      1.7005      1.7253      1.7337      1.7253      1.7005      1.6603      1.6064      1.5413      1.4682    
  1.3914      1.3163      1.2494      1.1987      1.1733      1.1845      1.2472      1.3808      1.6104      1.9653    
  2.5132      3.4543      9.9574      13.597      17.163      20.019      21.610      21.610      20.019      17.163    
  13.598      9.9575      6.7902      4.4308      2.9456      2.1491      1.7039      1.4267      1.2689      1.1943    
  1.1770      1.1987      1.2461      1.3087      1.3783      1.4481      1.5126      1.5680      1.6116      1.6416    
  1.6568      1.6568      1.6416      1.6116      1.5680      1.5126      1.4481      1.3783      1.3087      1.2461    
  1.1987      1.1770      1.1943      1.2689      1.4268      1.7040      2.1492      2.9456      4.4308      6.7901    
  19.264      25.147      30.326      33.885      35.154      33.885      30.326      25.148      19.264      13.598    
  8.8667      5.4527      3.3647      2.2984      1.7669      1.4517      1.2765      1.1943      1.1733      1.1922    
  1.2363      1.2943      1.3577      1.4196      1.4750      1.5206      1.5543      1.5748      1.5817      1.5748    
  1.5543      1.5206      1.4750      1.4196      1.3577      1.2943      1.2363      1.1922      1.1733      1.1943    
  1.2765      1.4517      1.7669      2.2984      3.3647      5.4526      8.8666      13.597      33.884      42.169    
  48.675      52.258      52.258      48.675      42.169      33.884      25.148      17.163      10.765      6.3077    
  3.6721      2.3839      1.7891      1.4517      1.2689      1.1845      1.1627      1.1801      1.2212      1.2744    
  1.3311      1.3848      1.4310      1.4671      1.4916      1.5040      1.5040      1.4916      1.4671      1.4310    
  1.3848      1.3311      1.2744      1.2212      1.1801      1.1627      1.1845      1.2689      1.4517      1.7891    
  2.3839      3.6721      6.3077      10.765      17.163      25.148      54.137      64.490      71.534      74.033    
  71.534      64.490      54.137      42.169      30.326      20.019      12.101      6.7957      3.7853      2.3839    
  1.7669      1.4268      1.2472      1.1665      1.1467      1.1640      1.2024      1.2508      1.3006      1.3461    
  1.3835      1.4109      1.4274      1.4329      1.4274      1.4109      1.3835      1.3461      1.3006      1.2507    
  1.2024      1.1639      1.1467      1.1665      1.2472      1.4268      1.7669      2.3839      3.7852      6.7956    
  12.101      20.019      30.326      42.169      79.270      90.771      97.075      97.075      90.771      79.270    
  64.490      48.675      33.885      21.610      12.582      6.7957      3.6722      2.2985      1.7040      1.3808    
  1.2147      1.1429      1.1276      1.1458      1.1821      1.2257      1.2688      1.3064      1.3357      1.3554    
  1.3652      1.3652      1.3554      1.3357      1.3065      1.2688      1.2256      1.1821      1.1458      1.1276    
  1.1429      1.2148      1.3808      1.7040      2.2984      3.6721      6.7956      12.582      21.610      33.885    
  48.675      64.490      107.29      118.47      122.43      118.47      107.29      90.771      71.534      52.258    
  35.154      21.610      12.101      6.3077      3.3648      2.1492      1.6104      1.3207      1.1762      1.1170    
  1.1082      1.1282      1.1626      1.2016      1.2384      1.2688      1.2910      1.3042      1.3086      1.3042    
  1.2910      1.2688      1.2384      1.2016      1.1626      1.1281      1.1082      1.1171      1.1762      1.3207    
  1.6104      2.1492      3.3647      6.3077      12.101      21.610      35.154      52.258      71.534      90.771    
  135.06      144.13      144.13      135.06      118.47      97.075      74.033      52.258      33.885      20.019    
  10.765      5.4527      2.9457      1.9653      1.4999      1.2548      1.1369      1.0928      1.0915      1.1137    
  1.1465      1.1812      1.2122      1.2363      1.2524      1.2603      1.2603      1.2524      1.2363      1.2122    
  1.1812      1.1465      1.1137      1.0915      1.0928      1.1369      1.2548      1.4999      1.9653      2.9456    
  5.4526      10.765      20.019      33.885      52.258      74.033      97.076      118.47      158.80      163.99    
  158.80      144.13      122.43      97.075      71.534      48.675      30.326      17.163      8.8666      4.4309    
  2.5132      1.7680      1.3868      1.1913      1.1020      1.0739      1.0804      1.1049      1.1363      1.1671    
  1.1929      1.2116      1.2226      1.2263      1.2227      1.2116      1.1929      1.1671      1.1363      1.1049    
  1.0804      1.0739      1.1020      1.1914      1.3868      1.7680      2.5132      4.4308      8.8666      17.163    
  30.326      48.675      71.534      97.076      122.43      144.13      174.85      174.85      163.99      144.13    
  118.47      90.771      64.490      42.169      25.147      13.597      6.7901      3.4543      2.1383      1.5784    
  1.2834      1.1372      1.0760      1.0634      1.0775      1.1042      1.1343      1.1615      1.1828      1.1970    
  1.2039      1.2039      1.1970      1.1828      1.1615      1.1343      1.1042      1.0775      1.0634      1.0760    
  1.1373      1.2834      1.5784      2.1383      3.4543      6.7901      13.597      25.148      42.169      64.490    
  90.771      118.47      144.13      163.99      174.85      163.99      144.13      118.47      90.771      64.490    
  42.169      25.148      13.597      6.7901      3.4543      2.1383      1.5784      1.2834      1.1373      1.0760    
  1.0634      1.0775      1.1042      1.1343      1.1615      1.1828      1.1970      1.2039      1.2039      1.1970    
  1.1828      1.1615      1.1343      1.1042      1.0775      1.0634      1.0760      1.1372      1.2834      1.5784    
  2.1383      3.4543      6.7901      13.597      25.147      42.169      64.490      90.771      118.47      144.13    
  163.99      174.85      163.99      148.87      126.51      100.38      74.033      50.436      31.470      17.834    
  9.2098      4.5734      2.5554      1.7772      1.3825      1.1786      1.0834      1.0507      1.0534      1.0746    
  1.1031      1.1315      1.1552      1.1725      1.1826      1.1860      1.1826      1.1724      1.1552      1.1315    
  1.1031      1.0747      1.0534      1.0507      1.0834      1.1786      1.3824      1.7772      2.5554      4.5735    
  9.2098      17.834      31.469      50.436      74.032      100.38      126.51      148.87      163.99      169.34    
  144.13      126.51      103.78      79.270      56.077      36.461      21.602      11.627      5.8463      3.0816    
  1.9989      1.5007      1.2359      1.1049      1.0511      1.0417      1.0569      1.0836      1.1131      1.1396    
  1.1603      1.1740      1.1807      1.1807      1.1740      1.1603      1.1396      1.1131      1.0836      1.0569    
  1.0417      1.0511      1.1049      1.2359      1.5007      1.9989      3.0816      5.8463      11.627      21.602    
  36.461      56.077      79.270      103.78      126.51      144.13      153.76      153.76      118.47      100.38    