unknown system                          
   1.00000000000000     
     0.000004    2.028818    2.028818
     2.028818    0.000004    2.028818
     2.028818    2.028818    0.000004
   Li   F 
     1     1
Direct
  0.000000  0.000000 -0.000000
  0.500000  0.500000  0.500000
 
   48   48   48
 0.17745183832E+03 0.17193168188E+03 0.15631570949E+03 0.13318250321E+03 0.10607577476E+03
 0.78661665592E+02 0.53983758727E+02 0.34005372563E+02 0.19492099428E+02 0.10169915116E+02
 0.50398186661E+01 0.27373388894E+01 0.18632480657E+01 0.14394463068E+01 0.12201995748E+01
 0.11169955718E+01 0.10802110784E+01 0.10811453755E+01 0.11019918595E+01 0.11309480471E+01
 0.11601657321E+01 0.11849114481E+01 0.12029323535E+01 0.12136341411E+01 0.12171552380E+01
 0.12136341284E+01 0.12029323288E+01 0.11849114122E+01 0.11601656857E+01 0.11309479899E+01
 0.11019917894E+01 0.10811452876E+01 0.10802109634E+01 0.11169954131E+01 0.12201993427E+01
 0.14394459477E+01 0.18632474837E+01 0.27373376265E+01 0.50398155638E+01 0.10169908902E+02
 0.19492088991E+02 0.34005357275E+02 0.53983738756E+02 0.78661642138E+02 0.10607575008E+03
 0.13318248038E+03 0.15631569183E+03 0.17193167223E+03 0.17193168333E+03 0.16136807722E+03
 0.14202605547E+03 0.11700133593E+03 0.89926075774E+02 0.64161163877E+02 0.42191627130E+02
 0.25346009169E+02 0.13828397962E+02 0.69650824081E+01 0.35472479153E+01 0.21771678359E+01
 0.16069855489E+01 0.13068585590E+01 0.11576083451E+01 0.10945250156E+01 0.10808728892E+01
 0.10946259895E+01 0.11215411628E+01 0.11520296712E+01 0.11799203947E+01 0.12018271636E+01
 0.12164440754E+01 0.12236495218E+01 0.12236457293E+01 0.12164346159E+01 0.12018168285E+01
 0.11799144280E+01 0.11520310794E+01 0.11215491004E+01 0.10946360829E+01 0.10808794389E+01
 0.10945240738E+01 0.11576001453E+01 0.13068479522E+01 0.16069799370E+01 0.21771733766E+01
 0.35472670815E+01 0.69651106079E+01 0.13828423225E+02 0.25346015650E+02 0.42191600848E+02
 0.64161098562E+02 0.89925976550E+02 0.11700121931E+03 0.14202594543E+03 0.16136799865E+03
 0.17193165485E+03 0.15631571222E+03 0.14202605675E+03 0.12086721312E+03 0.96094395428E+02
 0.71075653641E+02 0.48605767215E+02 0.30482507212E+02 0.17395299936E+02 0.90689683927E+01
 0.45549322667E+01 0.25676031202E+01 0.17994574397E+01 0.14122117840E+01 0.12129648697E+01
 0.11213719798E+01 0.10919094876E+01 0.10978639419E+01 0.11223867686E+01 0.11541507222E+01
 0.11855529702E+01 0.12119803110E+01 0.12312192066E+01 0.12426656513E+01 0.12464338924E+01
 0.12426529908E+01 0.12312002979E+01 0.12119647544E+01 0.11855486758E+01 0.11541597884E+01
 0.11224042228E+01 0.10978801238E+01 0.10919150873E+01 0.11213633477E+01 0.12129468709E+01
 0.14121964067E+01 0.17994582561E+01 0.25676291017E+01 0.45549843992E+01 0.90690339332E+01
 0.17395355010E+02 0.30482524805E+02 0.48605727449E+02 0.71075552384E+02 0.96094247824E+02
 0.12086705055E+03 0.14202591814E+03 0.15631563261E+03 0.16136800918E+03 0.13318250682E+03
 0.11700133812E+03 0.96094396358E+02 0.73527014042E+02 0.52134387792E+02 0.34006414759E+02
 0.20244408579E+02 0.10983551812E+02 0.56020292623E+01 0.30186501744E+01 0.19996037410E+01
 0.15272509460E+01 0.12777808529E+01 0.11571946111E+01 0.11115684484E+01 0.11094863958E+01
 0.11314958564E+01 0.11646174940E+01 0.11999129406E+01 0.12315500851E+01 0.12562890054E+01
 0.12728400836E+01 0.12810330350E+01 0.12810246039E+01 0.12728190540E+01 0.12562660352E+01
 0.12315368581E+01 0.11999161844E+01 0.11646353671E+01 0.11315186294E+01 0.11095013302E+01
 0.11115666946E+01 0.11571767779E+01 0.12777582467E+01 0.15272412884E+01 0.19996227328E+01
 0.30187069290E+01 0.56021204490E+01 0.10983657556E+02 0.20244498411E+02 0.34006458483E+02
 0.52134367041E+02 0.73526929987E+02 0.96094270597E+02 0.11700120640E+03 0.13318240789E+03
 0.14202592755E+03 0.14202596419E+03 0.10607577874E+03 0.89926078401E+02 0.71075655084E+02
 0.52134388348E+02 0.35261388239E+02 0.21828400089E+02 0.12326145731E+02 0.64741226624E+01
 0.34541133012E+01 0.21882062814E+01 0.16395227516E+01 0.13449573950E+01 0.11974324364E+01
 0.11365218609E+01 0.11267857112E+01 0.11464550012E+01 0.11811073741E+01 0.12206541325E+01
 0.12581526399E+01 0.12893146616E+01 0.13120190338E+01 0.13256088938E+01 0.13301047180E+01
 0.13255927209E+01 0.13119948430E+01 0.12892947016E+01 0.12581470859E+01 0.12206658232E+01
 0.11811301097E+01 0.11464764398E+01 0.11267937150E+01 0.11365113853E+01 0.11974095600E+01
 0.13449381668E+01 0.16395267894E+01 0.21882480750E+01 0.34542013389E+01 0.64742512431E+01
 0.12326293894E+02 0.21828538774E+02 0.35261490651E+02 0.52134439310E+02 0.71075655797E+02
 0.89926045066E+02 0.10607573592E+03 0.11700121431E+03 0.12086706681E+03 0.11700124291E+03
 0.78661669466E+02 0.64161166506E+02 0.48605768778E+02 0.34006415526E+02 0.21828400349E+02
 0.12809221537E+02 0.69704637231E+01 0.37724013799E+01 0.23431141083E+01 0.17345353672E+01
 0.14061487608E+01 0.12368243663E+01 0.11630238668E+01 0.11467589699E+01 0.11646027046E+01
 0.12010584067E+01 0.12451609225E+01 0.12890546630E+01 0.13274814926E+01 0.13574268390E+01
 0.13775801255E+01 0.13876325503E+01 0.13876249410E+01 0.13775610908E+01 0.13574059033E+01
 0.13274692233E+01 0.12890573754E+01 0.12451773452E+01 0.12010800251E+01 0.11646178281E+01
 0.11467588037E+01 0.11630078117E+01 0.12368019340E+01 0.14061368778E+01 0.17345518855E+01
 0.23431717589E+01 0.37725099777E+01 0.69706207551E+01 0.12809412081E+02 0.21828602350E+02
 0.34006606632E+02 0.48605931939E+02 0.64161292537E+02 0.78661756342E+02 0.89926051318E+02
 0.96094283846E+02 0.96094267637E+02 0.89926001334E+02 0.53983762096E+02 0.42191629420E+02
 0.30482508601E+02 0.20244409305E+02 0.12326146037E+02 0.69704638081E+01 0.38893103791E+01
 0.24321379985E+01 0.17983748397E+01 0.14529133770E+01 0.12699636555E+01 0.11872389374E+01
 0.11663484452E+01 0.11832318080E+01 0.12218575525E+01 0.12707410995E+01 0.13213824977E+01
 0.13677211001E+01 0.14058819777E+01 0.14338017215E+01 0.14506619579E+01 0.14562796776E+01
 0.14506514356E+01 0.14337858023E+01 0.14058684841E+01 0.13677168007E+01 0.13213897570E+01
 0.12707565124E+01 0.12218732961E+01 0.11832392467E+01 0.11663424979E+01 0.11872213044E+01
 0.12699434247E+01 0.14529046131E+01 0.17983920649E+01 0.24321940278E+01 0.38894200582E+01
 0.69706331499E+01 0.12326370223E+02 0.20244673733E+02 0.30482791245E+02 0.42191903714E+02
 0.53984000073E+02 0.64161297158E+02 0.71075665913E+02 0.73526945591E+02 0.71075572495E+02
 0.64161121393E+02 0.34005375196E+02 0.25346010926E+02 0.17395300985E+02 0.10983552357E+02
 0.64741228964E+01 0.37724014560E+01 0.24321380142E+01 0.18208964947E+01 0.14782787403E+01
 0.12920719524E+01 0.12056676112E+01 0.11827206788E+01 0.11998057401E+01 0.12410316216E+01
 0.12948157128E+01 0.13523291305E+01 0.14069419002E+01 0.14540401846E+01 0.14907953285E+01
 0.15157505409E+01 0.15283123745E+01 0.15283093940E+01 0.15157429368E+01 0.14907865424E+01
 0.14540342788E+01 0.14069417556E+01 0.13523350582E+01 0.12948250652E+01 0.12410396206E+01
 0.11998072882E+01 0.11827125500E+01 0.12056502767E+01 0.12920504281E+01 0.14782621944E+01
 0.18208967629E+01 0.24321703901E+01 0.37724885365E+01 0.64742812525E+01 0.10983786676E+02
 0.17395600576E+02 0.25346348935E+02 0.34005711380E+02 0.42191906888E+02 0.48605939138E+02
 0.52134450785E+02 0.52134382296E+02 0.48605745286E+02 0.42191619608E+02 0.19492101262E+02
 0.13828399139E+02 0.90689690626E+01 0.56020295896E+01 0.34541134326E+01 0.23431141512E+01
 0.17983748544E+01 0.14782787444E+01 0.12998372272E+01 0.12156169839E+01 0.11935623636E+01
 0.12121744321E+01 0.12564280443E+01 0.13150917344E+01 0.13793408493E+01 0.14422447091E+01
 0.14986388469E+01 0.15450039516E+01 0.15791936977E+01 0.16000535369E+01 0.16070559283E+01
 0.16000533136E+01 0.15791929429E+01 0.15450023885E+01 0.14986366583E+01 0.14422426961E+01
 0.13793400732E+01 0.13150926897E+01 0.12564297417E+01 0.12121739698E+01 0.11935554897E+01
 0.12155998002E+01 0.12998086682E+01 0.14782429967E+01 0.17983426559E+01 0.23431042989E+01
 0.34541559081E+01 0.56021494934E+01 0.90691767663E+01 0.13828683894E+02 0.19492429797E+02
 0.25346350935E+02 0.30482795973E+02 0.34006614450E+02 0.35261501395E+02 0.34006471437E+02
 0.30482538825E+02 0.25346029408E+02 0.10169916229E+02 0.69650830768E+01 0.45549326158E+01
 0.30186503282E+01 0.21882063413E+01 0.17345353945E+01 0.14529133885E+01 0.12920719562E+01
 0.12156169844E+01 0.11973531881E+01 0.12187719587E+01 0.12663752157E+01 0.13297087914E+01
 0.14002716881E+01 0.14711047979E+01 0.15367174315E+01 0.15930440311E+01 0.16372828073E+01
 0.16676369465E+01 0.16830568472E+01 0.16830594126E+01 0.16676430824E+01 0.16372886844E+01
 0.15930456656E+01 0.15367129594E+01 0.14710956685E+01 0.14002620228E+01 0.13297030483E+01
 0.12663752036E+01 0.12187747199E+01 0.11973510623E+01 0.12156003073E+01 0.12920336720E+01
 0.14528538553E+01 0.17344652656E+01 0.21881467939E+01 0.30186348281E+01 0.45549901567E+01
 0.69652255771E+01 0.10170131773E+02 0.13828685026E+02 0.17395603394E+02 0.20244678598E+02
 0.21828609291E+02 0.21828547426E+02 0.20244508058E+02 0.17395364734E+02 0.13828432108E+02
 0.50398192295E+01 0.35472482222E+01 0.25676032652E+01 0.19996038084E+01 0.16395227875E+01
 0.14061487782E+01 0.12699636625E+01 0.12056676127E+01 0.11935623628E+01 0.12187719577E+01
 0.12698122177E+01 0.13373561102E+01 0.14135025344E+01 0.14915123380E+01 0.15657972052E+01
 0.16319308333E+01 0.16865631812E+01 0.17272579086E+01 0.17523402668E+01 0.17608151224E+01
 0.17523484132E+01 0.17272695089E+01 0.16865712535E+01 0.16319297514E+01 0.15657857921E+01
 0.14914948130E+01 0.14134866703E+01 0.13373492674E+01 0.12698169953E+01 0.12187835479E+01
 0.11935691164E+01 0.12056550193E+01 0.12699204512E+01 0.14060727745E+01 0.16394239949E+01
 0.19995030711E+01 0.25675311761E+01 0.35472328326E+01 0.50398719897E+01 0.69652261324E+01
 0.90691782462E+01 0.10983789376E+02 0.12326374253E+02 0.12809417302E+02 0.12326299907E+02
 0.10983663787E+02 0.90690397584E+01 0.69651155045E+01 0.27373391187E+01 0.21771679561E+01
 0.17994575097E+01 0.15272509861E+01 0.13449574159E+01 0.12368243755E+01 0.11872389396E+01
 0.11827206772E+01 0.12121744289E+01 0.12663752126E+01 0.13373561082E+01 0.14180266756E+01
 0.15020729047E+01 0.15840156019E+01 0.16592628006E+01 0.17240704074E+01 0.17754421740E+01
 0.18110590279E+01 0.18292952581E+01 0.18293002038E+01 0.18110710703E+01 0.17754543024E+01
 0.17240748844E+01 0.16592551533E+01 0.15839972264E+01 0.15020509595E+01 0.14180111162E+01
 0.13373550024E+01 0.12663903210E+01 0.12121990534E+01 0.11827409365E+01 0.11872382555E+01
 0.12367895971E+01 0.13448842433E+01 0.15271464967E+01 0.17993386188E+01 0.21770570787E+01
 0.27372596402E+01 0.35472330567E+01 0.45549908105E+01 0.56021507773E+01 0.64742832861E+01
 0.69706359115E+01 0.69706240603E+01 0.64742547746E+01 0.56021238306E+01 0.45549872945E+01
 0.35472692846E+01 0.18632481678E+01 0.16069856153E+01 0.14122118243E+01 0.12777808752E+01
 0.11974324466E+01 0.11630238691E+01 0.11663484428E+01 0.11998057350E+01 0.12564280381E+01
 0.13297087854E+01 0.14135025295E+01 0.15020729019E+01 0.15902186447E+01 0.16733605444E+01
 0.17475303903E+01 0.18093046871E+01 0.18557822844E+01 0.18846736382E+01 0.18944817592E+01
 0.18846812217E+01 0.18557930487E+01 0.18093119185E+01 0.17475283433E+01 0.16733474722E+01
 0.15901982142E+01 0.15020532659E+01 0.14134932890E+01 0.13297169618E+01 0.12564546306E+01
 0.11998442673E+01 0.11663861772E+01 0.11630453592E+01 0.11974242200E+01 0.12777356163E+01
 0.14121306168E+01 0.16068775360E+01 0.18631274953E+01 0.21770571577E+01 0.25675314132E+01
 0.30186353286E+01 0.34541567595E+01 0.37724897642E+01 0.38894216003E+01 0.37725116889E+01
 0.34542030276E+01 0.30187084144E+01 0.25676302752E+01 0.21771742445E+01 0.14394463658E+01
 0.13068585967E+01 0.12129648915E+01 0.11571946213E+01 0.11365218631E+01 0.11467589665E+01
 0.11832318010E+01 0.12410316126E+01 0.13150917247E+01 0.14002716787E+01 0.14915123298E+01
 0.15840155958E+01 0.16733605411E+01 0.17555130487E+01 0.18267765179E+01 0.18837891601E+01
 0.19236509863E+01 0.19441764435E+01 0.19441785999E+01 0.19236561429E+01 0.18837939453E+01
 0.18267769913E+01 0.17555065655E+01 0.16733472897E+01 0.15839991952E+01 0.14914991807E+01
 0.14002691761E+01 0.13151058345E+01 0.12410645494E+01 0.11832805528E+01 0.11468151849E+01
 0.11365732530E+01 0.11572275391E+01 0.12129675189E+01 0.13068238953E+01 0.14393740679E+01
 0.16068775765E+01 0.17993387224E+01 0.19995032624E+01 0.21881471084E+01 0.23431047649E+01
 0.24321710022E+01 0.24321947408E+01 0.23431725014E+01 0.21882487790E+01 0.19996233684E+01
 0.17994588280E+01 0.16069804322E+01 0.12201996082E+01 0.11576083651E+01 0.11213719894E+01
 0.11115684500E+01 0.11267857069E+01 0.11646026962E+01 0.12218575413E+01 0.12948157000E+01
 0.13793408358E+01 0.14711047849E+01 0.15657971933E+01 0.16592627907E+01 0.17475303832E+01
 0.18267765141E+01 0.18933267166E+01 0.19437890712E+01 0.19753391134E+01 0.19860793447E+01
 0.19753385603E+01 0.19437879248E+01 0.18933247272E+01 0.18267730793E+01 0.17475246930E+01
 0.16592544058E+01 0.15657869368E+01 0.14710955505E+01 0.13793377757E+01 0.12948253765E+01
 0.12218859974E+01 0.11646528962E+01 0.11268552212E+01 0.11116483914E+01 0.11214479464E+01
 0.11576634581E+01 0.12202190172E+01 0.13068239176E+01 0.14121306734E+01 0.15271466008E+01
 0.16394241587E+01 0.17344654968E+01 0.17983429546E+01 0.18208971199E+01 0.17983924624E+01
 0.17345523003E+01 0.16395271980E+01 0.15272416716E+01 0.14121967525E+01 0.13068482564E+01
 0.11169955897E+01 0.10945250243E+01 0.10919094888E+01 0.11094863911E+01 0.11464549918E+01
 0.12010583939E+01 0.12707410842E+01 0.13523291137E+01 0.14422446918E+01 0.15367174145E+01
 0.16319308175E+01 0.17240703934E+01 0.18093046758E+01 0.18837891520E+01 0.19437890670E+01
 0.19859609458E+01 0.20077440455E+01 0.20077414232E+01 0.19859543348E+01 0.19437815105E+01
 0.18837836919E+01 0.18093024696E+01 0.17240698175E+01 0.16319282024E+01 0.15367092647E+01
 0.14422304409E+01 0.13523130524E+01 0.12707322868E+01 0.12010682400E+01 0.11464929299E+01
 0.11095554795E+01 0.10920035738E+01 0.10946289811E+01 0.11170889735E+01 0.11576634708E+01
 0.12129675505E+01 0.12777356739E+01 0.13448843339E+01 0.14060729030E+01 0.14528540234E+01
 0.14782432015E+01 0.14782624280E+01 0.14529048639E+01 0.14061371330E+01 0.13449384147E+01
 0.12777584787E+01 0.12129470830E+01 0.11576003378E+01 0.10802110864E+01 0.10808728903E+01
 0.10978639371E+01 0.11314958467E+01 0.11811073605E+01 0.12451609057E+01 0.13213824787E+01
 0.14069418797E+01 0.14986388257E+01 0.15930440101E+01 0.16865631612E+01 0.17754421558E+01
 0.18557822688E+01 0.19236509739E+01 0.19753391048E+01 0.20077440411E+01 0.20187868405E+01
 0.20077355932E+01 0.19753264405E+01 0.19236403002E+01 0.18557783473E+01 0.17754454082E+01
 0.16865688136E+01 0.15930439064E+01 0.14986253132E+01 0.14069121472E+01 0.13213413717E+01
 0.12451207417E+01 0.11810844520E+01 0.11315048324E+01 0.10979120367E+01 0.10809563941E+01
 0.10803156358E+01 0.10946289886E+01 0.11214479646E+01 0.11572275716E+01 0.11974242705E+01
 0.12367896683E+01 0.12699205447E+01 0.12920337871E+01 0.12998088016E+01 0.12920505745E+01
 0.12699435775E+01 0.12368020866E+01 0.11974097074E+01 0.11571769172E+01 0.11213634786E+01
 0.10945241987E+01 0.10811453770E+01 0.10946259853E+01 0.11223867594E+01 0.11646174805E+01
 0.12206541153E+01 0.12890546428E+01 0.13677210776E+01 0.14540401605E+01 0.15450039266E+01
 0.16372827824E+01 0.17272578845E+01 0.18110590054E+01 0.18846736182E+01 0.19441764268E+01
 0.19860793318E+01 0.20077414145E+01 0.20077355889E+01 0.19860648245E+01 0.19441606568E+01
 0.18846646590E+01 0.18110612113E+01 0.17272689784E+01 0.16372938648E+01 0.15450026348E+01
 0.14540158345E+01 0.13676698565E+01 0.12889823282E+01 0.12205754573E+01 0.11645519421E+01
 0.11223522353E+01 0.10946328069E+01 0.10811928684E+01 0.10809563989E+01 0.10920035850E+01
 0.11116484103E+01 0.11365732812E+01 0.11630453981E+01 0.11872383059E+01 0.12056550811E+01
 0.12156003793E+01 0.12155998799E+01 0.12056503610E+01 0.11872213903E+01 0.11630078963E+01
 0.11365114675E+01 0.11115667745E+01 0.10919151667E+01 0.10808795212E+01 0.11019918567E+01
 0.11215411549E+01 0.11541507097E+01 0.11999129239E+01 0.12581526196E+01 0.13274814692E+01
 0.14058819518E+01 0.14907953008E+01 0.15791936689E+01 0.16676369175E+01 0.17523402386E+01
 0.18292952315E+01 0.18944817350E+01 0.19441785789E+01 0.19753385432E+01 0.19859543219E+01
 0.19753264320E+01 0.19441606527E+01 0.18944675910E+01 0.18292930486E+01 0.17523523551E+01
 0.16676576476E+01 0.15792104228E+01 0.14907927434E+01 0.14058476950E+01 0.13274111360E+01
 0.12580523157E+01 0.11997981205E+01 0.11540418939E+01 0.11214578106E+01 0.11019469187E+01
 0.10946328105E+01 0.10979120441E+01 0.11095554910E+01 0.11268552371E+01 0.11468152054E+01
 0.11663862024E+01 0.11827409662E+01 0.11935691499E+01 0.11973510987E+01 0.11935555277E+01
 0.11827125883E+01 0.11663425356E+01 0.11467588409E+01 0.11267937524E+01 0.11095013699E+01
 0.10978801688E+01 0.10946361369E+01 0.11309480414E+01 0.11520296607E+01 0.11855529551E+01
 0.12315500658E+01 0.12893146385E+01 0.13574268125E+01 0.14338016923E+01 0.15157505097E+01
 0.16000535045E+01 0.16830568145E+01 0.17608150903E+01 0.18293001732E+01 0.18846811936E+01
 0.19236561181E+01 0.19437879038E+01 0.19437814938E+01 0.19236402879E+01 0.18846646510E+01
 0.18292930448E+01 0.17608241685E+01 0.16830818308E+01 0.16000859500E+01 0.15157755726E+01
 0.14338027147E+01 0.13573907320E+01 0.12892365139E+01 0.12314351314E+01 0.11854155369E+01
 0.11518893923E+01 0.11308247039E+01 0.11214578137E+01 0.11223522411E+01 0.11315048404E+01
 0.11464929393E+01 0.11646529064E+01 0.11832805631E+01 0.11998442773E+01 0.12121990624E+01
 0.12187835555E+01 0.12187747256E+01 0.12121739736E+01 0.11998072902E+01 0.11832392477E+01
 0.11646178297E+01 0.11464764444E+01 0.11315186400E+01 0.11224042431E+01 0.11215491343E+01
 0.11601657242E+01 0.11799203820E+01 0.12119802937E+01 0.12562889836E+01 0.13120190080E+01
 0.13775800962E+01 0.14506619256E+01 0.15283123400E+01 0.16070558924E+01 0.16830593764E+01
 0.17523483776E+01 0.18110710363E+01 0.18557930172E+01 0.18837939172E+01 0.18933247029E+01
 0.18837836718E+01 0.18557783317E+01 0.18110612000E+01 0.17523523480E+01 0.16830818274E+01
 0.16070945468E+01 0.15283575693E+01 0.14506988330E+01 0.13775924648E+01 0.13119938862E+01
 0.12562204918E+01 0.12118715153E+01 0.11797828318E+01 0.11600166363E+01 0.11518893953E+01
 0.11540418992E+01 0.11645519486E+01 0.11810844583E+01 0.12010682448E+01 0.12218859993E+01
 0.12410645474E+01 0.12564546239E+01 0.12663903093E+01 0.12698169783E+01 0.12663751817E+01
 0.12564297159E+01 0.12410395921E+01 0.12218732672E+01 0.12010799984E+01 0.11811300885E+01
 0.11646353552E+01 0.11541597896E+01 0.11520310976E+01 0.11849114384E+01 0.12018271488E+01
 0.12312191870E+01 0.12728400593E+01 0.13256088653E+01 0.13876325181E+01 0.14562796424E+01
 0.15283093565E+01 0.16000532748E+01 0.16676430432E+01 0.17272694704E+01 0.17754542656E+01
 0.18093118842E+01 0.18267769604E+01 0.18267730523E+01 0.18093024469E+01 0.17754453898E+01
 0.17272689644E+01 0.16676576376E+01 0.16000859437E+01 0.15283575663E+01 0.14563350959E+01
 0.13876825570E+01 0.13256392320E+01 0.12728383323E+01 0.12311779943E+01 0.12017462989E+01
 0.11847983727E+01 0.11797828349E+01 0.11854155423E+01 0.11997981266E+01 0.12205754624E+01
 0.12451207439E+01 0.12707322842E+01 0.12948253675E+01 0.13151058178E+01 0.13297169368E+01
 0.13373549690E+01 0.13373492261E+01 0.13297030002E+01 0.13150926366E+01 0.12948250096E+01
 0.12707564574E+01 0.12451772942E+01 0.12206657802E+01 0.11999161534E+01 0.11855486606E+01
 0.11799144321E+01 0.12029323419E+01 0.12164440585E+01 0.12426656295E+01 0.12810330084E+01
 0.13301046870E+01 0.13876249063E+01 0.14506513979E+01 0.15157428968E+01 0.15791929017E+01
 0.16372886429E+01 0.16865712128E+01 0.17240748455E+01 0.17475283070E+01 0.17555065327E+01
 0.17475246641E+01 0.17240697928E+01 0.16865687931E+01 0.16372938485E+01 0.15792104104E+01
 0.15157755638E+01 0.14506988275E+01 0.13876825543E+01 0.13301639300E+01 0.12810824222E+01
 0.12426933660E+01 0.12164408060E+01 0.12028940490E+01 0.12017463022E+01 0.12118715210E+01
 0.12314351377E+01 0.12580523207E+01 0.12889823294E+01 0.13213413668E+01 0.13523130393E+01
 0.13793377527E+01 0.14002691420E+01 0.14134932435E+01 0.14180110596E+01 0.14134866038E+01
 0.14002619485E+01 0.13793399938E+01 0.13523349770E+01 0.13213896778E+01 0.12890573023E+01
 0.12581470231E+01 0.12315368095E+01 0.12119647237E+01 0.12018168186E+01 0.12136341275E+01
 0.12236495028E+01 0.12464338683E+01 0.12810245750E+01 0.13255926877E+01 0.13775610539E+01
 0.14337857625E+01 0.14907865006E+01 0.15450023456E+01 0.15930456226E+01 0.16319297093E+01
 0.16592551131E+01 0.16733474347E+01 0.16733472557E+01 0.16592543756E+01 0.16319281764E+01
 0.15930438845E+01 0.15450026169E+01 0.14907927292E+01 0.14338027039E+01 0.13775924571E+01
 0.13256392272E+01 0.12810824198E+01 0.12464946575E+01 0.12237020166E+01 0.12136672828E+01
 0.12164408095E+01 0.12311780003E+01 0.12562204985E+01 0.12892365191E+01 0.13274111370E+01
 0.13676698505E+01 0.14069121317E+01 0.14422304137E+01 0.14710955100E+01 0.14914991261E+01
 0.15020531972E+01 0.15020508778E+01 0.14914947203E+01 0.14710955675E+01 0.14422425904E+01
 0.14069416494E+01 0.13677166981E+01 0.13274691289E+01 0.12892946195E+01 0.12562659693E+01
 0.12312002515E+01 0.12164345914E+01 0.12171552223E+01 0.12236457082E+01 0.12426529647E+01
 0.12728190232E+01 0.13119948082E+01 0.13574058650E+01 0.14058684431E+01 0.14540342359E+01
 0.14986366146E+01 0.15367129157E+01 0.15657857495E+01 0.15839971857E+01 0.15901981763E+01
 0.15839991607E+01 0.15657869061E+01 0.15367092379E+01 0.14986252904E+01 0.14540158154E+01
 0.14058476794E+01 0.13573907196E+01 0.13119938768E+01 0.12728383255E+01 0.12426933616E+01
 0.12237020145E+01 0.12172174479E+01 0.12237020202E+01 0.12426933722E+01 0.12728383394E+01
 0.13119938917E+01 0.13573907329E+01 0.14058476885E+01 0.14540158175E+01 0.14986252831E+01
 0.15367092193E+01 0.15657868750E+01 0.15839991165E+01 0.15901981194E+01 0.15839971172E+01
 0.15657856714E+01 0.15367128307E+01 0.14986365260E+01 0.14540341474E+01 0.14058683584E+01
 0.13574057877E+01 0.13119947419E+01 0.12728189707E+01 0.12426529283E+01 0.12236456897E+01
 0.12136341107E+01 0.12164345931E+01 0.12312002703E+01 0.12562660032E+01 0.12892946657E+01
 0.13274691842E+01 0.13677167592E+01 0.14069417125E+01 0.14422426522E+01 0.14710956249E+01
 0.14914947705E+01 0.15020509190E+01 0.15020532281E+01 0.14914991462E+01 0.14710955197E+01
 0.14422304138E+01 0.14069121239E+01 0.13676698367E+01 0.13274111195E+01 0.12892365003E+01
 0.12562204809E+01 0.12311779859E+01 0.12164407998E+01 0.12136672788E+01 0.12237020182E+01
 0.12464946639E+01 0.12810824295E+01 0.13256392377E+01 0.13775924658E+01 0.14338027078E+01
 0.14907927253E+01 0.15450026024E+01 0.15930438572E+01 0.16319281346E+01 0.16592543185E+01
 0.16733471833E+01 0.16733473482E+01 0.16592550143E+01 0.16319296011E+01 0.15930455084E+01
 0.15450022291E+01 0.14907863859E+01 0.14337856536E+01 0.13775609544E+01 0.13255926009E+01
 0.12810245035E+01 0.12464338141E+01 0.12236494672E+01 0.12029323094E+01 0.12018168043E+01
 0.12119647257E+01 0.12315368253E+01 0.12581470497E+01 0.12890573362E+01 0.13213897156E+01
 0.13523350154E+01 0.13793400298E+01 0.14002619796E+01 0.14134866283E+01 0.14180110762E+01
 0.14134932517E+01 0.14002691420E+01 0.13793377450E+01 0.13523130254E+01 0.13213413481E+01
 0.12889823079E+01 0.12580522985E+01 0.12314351168E+01 0.12118715032E+01 0.12017462890E+01
 0.12028940412E+01 0.12164408036E+01 0.12426933682E+01 0.12810824274E+01 0.13301639360E+01
 0.13876825582E+01 0.14506988260E+01 0.15157755537E+01 0.15792103887E+01 0.16372938125E+01
 0.16865687408E+01 0.17240697230E+01 0.17475245767E+01 0.17555064284E+01 0.17475281878E+01
 0.17240747141E+01 0.16865710728E+01 0.16372884982E+01 0.15791927566E+01 0.15157427557E+01
 0.14506512647E+01 0.13876247847E+01 0.13301045801E+01 0.12810329186E+01 0.12426655583E+01
 0.12164440068E+01 0.11849113916E+01 0.11799144030E+01 0.11855486466E+01 0.11999161514E+01
 0.12206657870E+01 0.12451773062E+01 0.12707564714E+01 0.12948250228E+01 0.13150926467E+01
 0.13297030057E+01 0.13373492259E+01 0.13373549629E+01 0.13297169249E+01 0.13151058006E+01
 0.12948253460E+01 0.12707322597E+01 0.12451207179E+01 0.12205754366E+01 0.11997981026E+01
 0.11854155215E+01 0.11797828186E+01 0.11847983615E+01 0.12017462928E+01 0.12311779925E+01
 0.12728383333E+01 0.13256392334E+01 0.13876825559E+01 0.14563350890E+01 0.15283575502E+01
 0.16000859150E+01 0.16676575932E+01 0.17272689020E+01 0.17754453080E+01 0.18093023450E+01
 0.18267729311E+01 0.18267768215E+01 0.18093117303E+01 0.17754541002E+01 0.17272692978E+01
 0.16676428680E+01 0.16000531015E+01 0.15283091896E+01 0.14562794860E+01 0.13876323758E+01
 0.13256087399E+01 0.12728399529E+01 0.12312191006E+01 0.12018270827E+01 0.11601656642E+01
 0.11520310539E+01 0.11541597590E+01 0.11646353341E+01 0.11811300736E+01 0.12010799863E+01
 0.12218732552E+01 0.12410395783E+01 0.12564296988E+01 0.12663751609E+01 0.12698169537E+01
 0.12663902813E+01 0.12564545934E+01 0.12410645152E+01 0.12218859665E+01 0.12010682125E+01
 0.11810844277E+01 0.11645519208E+01 0.11540418752E+01 0.11518893761E+01 0.11600166221E+01
 0.11797828224E+01 0.12118715100E+01 0.12562204889E+01 0.13119938834E+01 0.13775924592E+01
 0.14506988212E+01 0.15283575477E+01 0.16070945117E+01 0.16830817756E+01 0.17523522766E+01
 0.18110611073E+01 0.18557782167E+01 0.18837835349E+01 0.18933245455E+01 0.18837937419E+01
 0.18557928277E+01 0.18110708369E+01 0.17523481731E+01 0.16830591717E+01 0.16070556925E+01
 0.15283121494E+01 0.14506617484E+01 0.13775799357E+01 0.13120188667E+01 0.12562888631E+01
 0.12119801944E+01 0.11799203032E+01 0.11309479679E+01 0.11215490744E+01 0.11224041931E+01
 0.11315185962E+01 0.11464764034E+01 0.11646177888E+01 0.11832392051E+01 0.11998072450E+01
 0.12121739258E+01 0.12187746759E+01 0.12187835049E+01 0.12121990123E+01 0.11998442288E+01
 0.11832805173E+01 0.11646528640E+01 0.11464929012E+01 0.11315048070E+01 0.11223522130E+01
 0.11214577910E+01 0.11308246866E+01 0.11518893798E+01 0.11854155283E+01 0.12314351249E+01
 0.12892365074E+01 0.13573907224E+01 0.14338026986E+01 0.15157755463E+01 0.16000859097E+01
 0.16830817728E+01 0.17608240898E+01 0.18292929430E+01 0.18846645249E+01 0.19236401374E+01
 0.19437813202E+01 0.19437877096E+01 0.19236559069E+01 0.18846809697E+01 0.18292999415E+01
 0.17608148561E+01 0.16830565830E+01 0.16000532809E+01 0.15157502987E+01 0.14338014977E+01
 0.13574266374E+01 0.12893144847E+01 0.12315499341E+01 0.11855528448E+01 0.11520295701E+01
 0.11019917668E+01 0.10946360564E+01 0.10978800935E+01 0.11095012961E+01 0.11267936773E+01
 0.11467587627E+01 0.11663424540E+01 0.11827125041E+01 0.11935554426E+01 0.11973510149E+01
 0.11935690699E+01 0.11827408919E+01 0.11663861353E+01 0.11468151464E+01 0.11268551864E+01
 0.11095554485E+01 0.10979120094E+01 0.10946327829E+01 0.11019468976E+01 0.11214577949E+01
 0.11540418821E+01 0.11997981109E+01 0.12580523060E+01 0.13274111231E+01 0.14058476755E+01
 0.14907927135E+01 0.15792103785E+01 0.16676575852E+01 0.17523522710E+01 0.18292929402E+01
 0.18944674565E+01 0.19441604918E+01 0.19753262456E+01 0.19859541121E+01 0.19753383135E+01
 0.19441783336E+01 0.18944814792E+01 0.18292949706E+01 0.17523399783E+01 0.16676366634E+01
 0.15791934261E+01 0.14907950738E+01 0.14058817442E+01 0.13274812833E+01 0.12581524563E+01
 0.11999127828E+01 0.11541505889E+01 0.11215410515E+01 0.10811452639E+01 0.10808794111E+01
 0.10919150551E+01 0.11115666580E+01 0.11365113443E+01 0.11630077664E+01 0.11872212554E+01
 0.12056502247E+01 0.12155997463E+01 0.12156002528E+01 0.12056549656E+01 0.11872382040E+01
 0.11630453111E+01 0.11365732091E+01 0.11116483521E+01 0.10920035391E+01 0.10809563637E+01
 0.10811928419E+01 0.10946327873E+01 0.11223522204E+01 0.11645519297E+01 0.12205754448E+01
 0.12889823126E+01 0.13676698344E+01 0.14540158021E+01 0.15450025881E+01 0.16372937997E+01
 0.17272688913E+01 0.18110610990E+01 0.18846645194E+01 0.19441604890E+01 0.19860646290E+01
 0.20077353676E+01 0.20077411705E+01 0.19860790694E+01 0.19441761510E+01 0.18846733346E+01
 0.18110587199E+01 0.17272576031E+01 0.16372825107E+01 0.15450036698E+01 0.14540399225E+01
 0.13677208613E+01 0.12890544494E+01 0.12206539443E+01 0.11646173299E+01 0.11223866258E+01
 0.10946258645E+01 0.10802109379E+01 0.10945240434E+01 0.11213633119E+01 0.11571767363E+01
 0.11974095123E+01 0.12368018801E+01 0.12699433652E+01 0.12920503641E+01 0.12998086013E+01
 0.12920336042E+01 0.12699203847E+01 0.12367895339E+01 0.11974241616E+01 0.11572274865E+01
 0.11214479001E+01 0.10946289409E+01 0.10803156013E+01 0.10809563692E+01 0.10979120183E+01
 0.11315048174E+01 0.11810844374E+01 0.12451207242E+01 0.13213413479E+01 0.14069121134E+01
 0.14986252653E+01 0.15930438405E+01 0.16865687256E+01 0.17754452948E+01 0.18557782059E+01
 0.19236401294E+01 0.19753262403E+01 0.20077353651E+01 0.20187865872E+01 0.20077437666E+01
 0.19753388140E+01 0.19236506725E+01 0.18557819628E+01 0.17754418514E+01 0.16865628646E+01
 0.15930437268E+01 0.14986385604E+01 0.14069416355E+01 0.13213822571E+01 0.12451607063E+01
 0.11811071810E+01 0.11314956833E+01 0.10978637846E+01 0.10808727429E+01 0.11169953843E+01
 0.11576001100E+01 0.12129468279E+01 0.12777581949E+01 0.13449381056E+01 0.14061368071E+01
 0.14529045336E+01 0.14782621080E+01 0.14782429062E+01 0.14528537641E+01 0.14060726862E+01
 0.13448841609E+01 0.12777355418E+01 0.12129674535E+01 0.11576634019E+01 0.11170889259E+01
 0.10946289486E+01 0.10920035511E+01 0.11095554621E+01 0.11464929139E+01 0.12010682217E+01
 0.12707322625E+01 0.13523130185E+01 0.14422303933E+01 0.15367091996E+01 0.16319281158E+01
 0.17240697057E+01 0.18093023297E+01 0.18837835220E+01 0.19437813101E+01 0.19859541048E+01
 0.20077411659E+01 0.20077437645E+01 0.19859606457E+01 0.19437887534E+01 0.18837888311E+01
 0.18093043537E+01 0.17240700767E+01 0.16319305121E+01 0.15367171256E+01 0.14422444230E+01
 0.13523288668E+01 0.12707408587E+01 0.12010581872E+01 0.11464547995E+01 0.11094862071E+01