   2   2   1   0
  0.8511081E+01  0.2887420E-09  0.2887420E-09  0.2887420E-09  0.5000000E-15
  1.000000000000000E-004
  CAR 
 unknown system                          
     42.41894451    -46.14647058  301     -0.90430437      1.00000000
    -46.146  0.0000E+00  0.0000E+00
    -45.851  0.0000E+00  0.0000E+00
    -45.556  0.0000E+00  0.0000E+00
    -45.261  0.0000E+00  0.0000E+00
    -44.966  0.0000E+00  0.0000E+00
    -44.670  0.0000E+00  0.0000E+00
    -44.375  0.0000E+00  0.0000E+00
    -44.080  0.0000E+00  0.0000E+00
    -43.785  0.0000E+00  0.0000E+00
    -43.490  0.0000E+00  0.0000E+00
    -43.194  0.0000E+00  0.0000E+00
    -42.899  0.0000E+00  0.0000E+00
    -42.604  0.0000E+00  0.0000E+00
    -42.309  0.0000E+00  0.0000E+00
    -42.013  0.3124E-01  0.1005E-01
    -41.718  0.0000E+00  0.1005E-01
    -41.423  0.0000E+00  0.1005E-01
    -41.128  0.0000E+00  0.1005E-01
    -40.833  0.0000E+00  0.1005E-01
    -40.537  0.0000E+00  0.1005E-01
    -40.242  0.0000E+00  0.1005E-01
    -39.947  0.0000E+00  0.1005E-01
    -39.652  0.0000E+00  0.1005E-01
    -39.356  0.0000E+00  0.1005E-01
    -39.061  0.0000E+00  0.1005E-01
    -38.766  0.0000E+00  0.1005E-01
    -38.471  0.0000E+00  0.1005E-01
    -38.176  0.0000E+00  0.1005E-01
    -37.880  0.0000E+00  0.1005E-01
    -37.585  0.0000E+00  0.1005E-01
    -37.290  0.0000E+00  0.1005E-01
    -36.995  0.0000E+00  0.1005E-01
    -36.699  0.0000E+00  0.1005E-01
    -36.404  0.0000E+00  0.1005E-01
    -36.109  0.0000E+00  0.1005E-01
    -35.814  0.0000E+00  0.1005E-01
    -35.519  0.0000E+00  0.1005E-01
    -35.223  0.0000E+00  0.1005E-01
    -34.928  0.0000E+00  0.1005E-01
    -34.633  0.0000E+00  0.1005E-01
    -34.338  0.0000E+00  0.1005E-01
    -34.043  0.0000E+00  0.1005E-01
    -33.747  0.0000E+00  0.1005E-01
    -33.452  0.0000E+00  0.1005E-01
    -33.157  0.0000E+00  0.1005E-01
    -32.862  0.0000E+00  0.1005E-01
    -32.566  0.0000E+00  0.1005E-01
    -32.271  0.0000E+00  0.1005E-01
    -31.976  0.0000E+00  0.1005E-01
    -31.681  0.0000E+00  0.1005E-01
    -31.386  0.0000E+00  0.1005E-01
    -31.090  0.0000E+00  0.1005E-01
    -30.795  0.0000E+00  0.1005E-01
    -30.500  0.0000E+00  0.1005E-01
    -30.205  0.0000E+00  0.1005E-01
    -29.909  0.0000E+00  0.1005E-01
    -29.614  0.0000E+00  0.1005E-01
    -29.319  0.0000E+00  0.1005E-01
    -29.024  0.0000E+00  0.1005E-01
    -28.729  0.0000E+00  0.1005E-01
    -28.433  0.0000E+00  0.1005E-01
    -28.138  0.0000E+00  0.1005E-01
    -27.843  0.0000E+00  0.1005E-01
    -27.548  0.0000E+00  0.1005E-01
    -27.253  0.0000E+00  0.1005E-01
    -26.957  0.0000E+00  0.1005E-01
    -26.662  0.0000E+00  0.1005E-01
    -26.367  0.0000E+00  0.1005E-01
    -26.072  0.0000E+00  0.1005E-01
    -25.776  0.0000E+00  0.1005E-01
    -25.481  0.0000E+00  0.1005E-01
    -25.186  0.0000E+00  0.1005E-01
    -24.891  0.0000E+00  0.1005E-01
    -24.596  0.0000E+00  0.1005E-01
    -24.300  0.0000E+00  0.1005E-01
    -24.005  0.0000E+00  0.1005E-01
    -23.710  0.0000E+00  0.1005E-01
    -23.415  0.0000E+00  0.1005E-01
    -23.119  0.0000E+00  0.1005E-01
    -22.824  0.0000E+00  0.1005E-01
    -22.529  0.0000E+00  0.1005E-01
    -22.234  0.0000E+00  0.1005E-01
    -21.939  0.0000E+00  0.1005E-01
    -21.643  0.0000E+00  0.1005E-01
    -21.348  0.0000E+00  0.1005E-01
    -21.053  0.2097E-04  0.1006E-01
    -20.758  0.2629E-02  0.1165E-01
    -20.463  0.7114E-02  0.1825E-01
    -20.167  0.0000E+00  0.2010E-01
    -19.872  0.0000E+00  0.2010E-01
    -19.577  0.0000E+00  0.2010E-01
    -19.282  0.0000E+00  0.2010E-01
    -18.986  0.0000E+00  0.2010E-01
    -18.691  0.0000E+00  0.2010E-01
    -18.396  0.0000E+00  0.2010E-01
    -18.101  0.0000E+00  0.2010E-01
    -17.806  0.0000E+00  0.2010E-01
    -17.510  0.0000E+00  0.2010E-01
    -17.215  0.0000E+00  0.2010E-01
    -16.920  0.0000E+00  0.2010E-01
    -16.625  0.0000E+00  0.2010E-01
    -16.329  0.0000E+00  0.2010E-01
    -16.034  0.0000E+00  0.2010E-01
    -15.739  0.0000E+00  0.2010E-01
    -15.444  0.0000E+00  0.2010E-01
    -15.149  0.0000E+00  0.2010E-01
    -14.853  0.0000E+00  0.2010E-01
    -14.558  0.0000E+00  0.2010E-01
    -14.263  0.0000E+00  0.2010E-01
    -13.968  0.0000E+00  0.2010E-01
    -13.672  0.0000E+00  0.2010E-01
    -13.377  0.0000E+00  0.2010E-01
    -13.082  0.0000E+00  0.2010E-01
    -12.787  0.0000E+00  0.2010E-01
    -12.492  0.0000E+00  0.2010E-01
    -12.196  0.0000E+00  0.2010E-01
    -11.901  0.0000E+00  0.2010E-01
    -11.606  0.0000E+00  0.2010E-01
    -11.311  0.0000E+00  0.2010E-01
    -11.016  0.0000E+00  0.2010E-01
    -10.720  0.0000E+00  0.2010E-01
    -10.425  0.0000E+00  0.2010E-01
    -10.130  0.0000E+00  0.2010E-01
     -9.835  0.0000E+00  0.2010E-01
     -9.539  0.0000E+00  0.2010E-01
     -9.244  0.0000E+00  0.2010E-01
     -8.949  0.0000E+00  0.2010E-01
     -8.654  0.0000E+00  0.2010E-01
     -8.359  0.0000E+00  0.2010E-01
     -8.063  0.0000E+00  0.2010E-01
     -7.768  0.0000E+00  0.2010E-01
     -7.473  0.0000E+00  0.2010E-01
     -7.178  0.0000E+00  0.2010E-01
     -6.882  0.0000E+00  0.2010E-01
     -6.587  0.0000E+00  0.2010E-01
     -6.292  0.0000E+00  0.2010E-01
     -5.997  0.0000E+00  0.2010E-01
     -5.702  0.0000E+00  0.2010E-01
     -5.406  0.0000E+00  0.2010E-01
     -5.111  0.0000E+00  0.2010E-01
     -4.816  0.0000E+00  0.2010E-01
     -4.521  0.0000E+00  0.2010E-01
     -4.226  0.0000E+00  0.2010E-01
     -3.930  0.4729E-04  0.2020E-01
     -3.635  0.1330E-02  0.2101E-01
     -3.340  0.4708E-02  0.2433E-01
     -3.045  0.2120E-02  0.2744E-01
     -2.749  0.1634E-02  0.2939E-01
     -2.454  0.2231E-02  0.3182E-01
     -2.159  0.2826E-02  0.3437E-01
     -1.864  0.4602E-02  0.3829E-01
     -1.569  0.5444E-02  0.4388E-01
     -1.273  0.4631E-02  0.4903E-01
     -0.978  0.0000E+00  0.5025E-01
     -0.683  0.0000E+00  0.5025E-01
     -0.388  0.0000E+00  0.5025E-01
     -0.092  0.0000E+00  0.5025E-01
      0.203  0.0000E+00  0.5025E-01
      0.498  0.0000E+00  0.5025E-01
      0.793  0.0000E+00  0.5025E-01
      1.088  0.0000E+00  0.5025E-01
      1.384  0.0000E+00  0.5025E-01
      1.679  0.0000E+00  0.5025E-01
      1.974  0.0000E+00  0.5025E-01
      2.269  0.0000E+00  0.5025E-01
      2.565  0.0000E+00  0.5025E-01
      2.860  0.0000E+00  0.5025E-01
      3.155  0.0000E+00  0.5025E-01
      3.450  0.0000E+00  0.5025E-01
      3.745  0.0000E+00  0.5025E-01
      4.041  0.0000E+00  0.5025E-01
      4.336  0.0000E+00  0.5025E-01
      4.631  0.0000E+00  0.5025E-01
      4.926  0.0000E+00  0.5025E-01
      5.221  0.0000E+00  0.5025E-01
      5.517  0.0000E+00  0.5025E-01
      5.812  0.0000E+00  0.5025E-01
      6.107  0.0000E+00  0.5025E-01
      6.402  0.0000E+00  0.5025E-01
      6.698  0.0000E+00  0.5025E-01
      6.993  0.0000E+00  0.5025E-01
      7.288  0.0000E+00  0.5025E-01
      7.583  0.0000E+00  0.5025E-01
      7.878  0.3084E-14  0.5026E-01
      8.174  0.6404E-08  0.5032E-01
      8.469  0.0000E+00  0.5052E-01
      8.764  0.4649E-03  0.5066E-01
      9.059  0.0000E+00  0.5091E-01
      9.355  0.1240E-03  0.5123E-01
      9.650  0.3728E-03  0.5174E-01
      9.945  0.3700E-12  0.5275E-01
     10.240  0.1484E-02  0.5352E-01
     10.535  0.1048E-03  0.5427E-01
     10.831  0.3802E-03  0.5457E-01
     11.126  0.3719E-03  0.5580E-01
     11.421  0.2454E-03  0.5620E-01
     11.716  0.3719E-03  0.5679E-01
     12.011  0.7437E-03  0.5750E-01
     12.307  0.5248E-03  0.5799E-01
     12.602  0.0000E+00  0.5841E-01
     12.897  0.1859E-02  0.5929E-01
     13.192  0.0000E+00  0.5951E-01
     13.488  0.6583E-03  0.6011E-01
     13.783  0.3720E-03  0.6058E-01
     14.078  0.1258E-02  0.6199E-01
     14.373  0.1366E-02  0.6323E-01
     14.668  0.0000E+00  0.6458E-01
     14.964  0.2791E-02  0.6623E-01
     15.259  0.1119E-02  0.6722E-01
     15.554  0.1422E-02  0.6807E-01
     15.849  0.3719E-03  0.6866E-01
     16.145  0.6330E-03  0.6889E-01
     16.440  0.1251E-04  0.6966E-01
     16.735  0.2464E-03  0.7058E-01
     17.030  0.3759E-03  0.7173E-01
     17.325  0.1789E-02  0.7292E-01
     17.621  0.2436E-02  0.7442E-01
     17.916  0.3431E-02  0.7907E-01
     18.211  0.2417E-02  0.8307E-01
     18.506  0.1487E-02  0.8538E-01
     18.802  0.1274E-02  0.8732E-01
     19.097  0.7406E-03  0.8832E-01
     19.392  0.5579E-03  0.8908E-01
     19.687  0.3719E-03  0.8995E-01
     19.982  0.7438E-03  0.9028E-01
     20.278  0.2088E-03  0.9065E-01
     20.573  0.2563E-03  0.9104E-01
     20.868  0.3138E-05  0.9141E-01
     21.163  0.5578E-03  0.9201E-01
     21.458  0.9887E-06  0.9229E-01
     21.754  0.1859E-03  0.9247E-01
     22.049  0.3137E-06  0.9291E-01
     22.344  0.1115E-02  0.9357E-01
     22.639  0.7438E-03  0.9391E-01
     22.935  0.6174E-05  0.9402E-01
     23.230  0.1281E-05  0.9436E-01
     23.525  0.7850E-04  0.9488E-01
     23.820  0.4169E-03  0.9549E-01
     24.115  0.7438E-03  0.9612E-01
     24.411  0.1251E-11  0.9656E-01
     24.706  0.1522E-02  0.9715E-01
     25.001  0.0000E+00  0.9744E-01
     25.296  0.2089E-04  0.9788E-01
     25.592  0.1504E-02  0.9902E-01
     25.887  0.0000E+00  0.9947E-01
     26.182  0.1116E-02  0.1003E+00
     26.477  0.7266E-03  0.1006E+00
     26.772  0.3717E-03  0.1008E+00
     27.068  0.1260E-02  0.1020E+00
     27.363  0.9719E-03  0.1029E+00
     27.658  0.9331E-03  0.1037E+00
     27.953  0.7139E-06  0.1042E+00
     28.248  0.3719E-03  0.1045E+00
     28.544  0.1506E-02  0.1061E+00
     28.839  0.3714E-03  0.1072E+00
     29.134  0.7118E-03  0.1084E+00
     29.429  0.1380E-02  0.1092E+00
     29.725  0.8918E-03  0.1103E+00
     30.020  0.3719E-03  0.1109E+00
     30.315  0.1580E-07  0.1117E+00
     30.610  0.7438E-03  0.1123E+00
     30.905  0.0000E+00  0.1132E+00
     31.201  0.0000E+00  0.1135E+00
     31.496  0.3440E-03  0.1138E+00
     31.791  0.5635E-03  0.1147E+00
     32.086  0.8544E-03  0.1161E+00
     32.382  0.3719E-03  0.1167E+00
     32.677  0.8097E-09  0.1170E+00
     32.972  0.6189E-03  0.1175E+00
     33.267  0.1488E-02  0.1182E+00
     33.562  0.1116E-02  0.1190E+00
     33.858  0.0000E+00  0.1197E+00
     34.153  0.2214E-09  0.1200E+00
     34.448  0.0000E+00  0.1202E+00
     34.743  0.0000E+00  0.1202E+00
     35.038  0.4760E-03  0.1203E+00
     35.334  0.4657E-04  0.1204E+00
     35.629  0.0000E+00  0.1205E+00
     35.924  0.0000E+00  0.1205E+00
     36.219  0.0000E+00  0.1205E+00
     36.515  0.1796E-07  0.1205E+00
     36.810  0.0000E+00  0.1206E+00
     37.105  0.0000E+00  0.1206E+00
     37.400  0.0000E+00  0.1206E+00
     37.695  0.0000E+00  0.1206E+00
     37.991  0.0000E+00  0.1206E+00
     38.286  0.0000E+00  0.1206E+00
     38.581  0.0000E+00  0.1206E+00
     38.876  0.0000E+00  0.1206E+00
     39.172  0.0000E+00  0.1206E+00
     39.467  0.0000E+00  0.1206E+00
     39.762  0.0000E+00  0.1206E+00
     40.057  0.0000E+00  0.1206E+00
     40.352  0.0000E+00  0.1206E+00
     40.648  0.0000E+00  0.1206E+00
     40.943  0.0000E+00  0.1206E+00
     41.238  0.0000E+00  0.1206E+00
     41.533  0.0000E+00  0.1206E+00
     41.829  0.0000E+00  0.1206E+00
     42.124  0.0000E+00  0.1206E+00
     42.419  0.0000E+00  0.1206E+00
     42.41894451    -46.14647058  301     -0.90430437      1.00000000
    -46.146  0.0000E+00  0.0000E+00  0.0000E+00  0.0000E+00  0.0000E+00  0.0000E+00  0.0000E+00  0.0000E+00  0.0000E+00
    -45.851  0.0000E+00  0.0000E+00  0.0000E+00  0.0000E+00  0.0000E+00  0.0000E+00  0.0000E+00  0.0000E+00  0.0000E+00
    -45.556  0.0000E+00  0.0000E+00  0.0000E+00  0.0000E+00  0.0000E+00  0.0000E+00  0.0000E+00  0.0000E+00  0.0000E+00
    -45.261  0.0000E+00  0.0000E+00  0.0000E+00  0.0000E+00  0.0000E+00  0.0000E+00  0.0000E+00  0.0000E+00  0.0000E+00
    -44.966  0.0000E+00  0.0000E+00  0.0000E+00  0.0000E+00  0.0000E+00  0.0000E+00  0.0000E+00  0.0000E+00  0.0000E+00
    -44.670  0.0000E+00  0.0000E+00  0.0000E+00  0.0000E+00  0.0000E+00  0.0000E+00  0.0000E+00  0.0000E+00  0.0000E+00
    -44.375  0.0000E+00  0.0000E+00  0.0000E+00  0.0000E+00  0.0000E+00  0.0000E+00  0.0000E+00  0.0000E+00  0.0000E+00
    -44.080  0.0000E+00  0.0000E+00  0.0000E+00  0.0000E+00  0.0000E+00  0.0000E+00  0.0000E+00  0.0000E+00  0.0000E+00
    -43.785  0.0000E+00  0.0000E+00  0.0000E+00  0.0000E+00  0.0000E+00  0.0000E+00  0.0000E+00  0.0000E+00  0.0000E+00
    -43.490  0.0000E+00  0.0000E+00  0.0000E+00  0.0000E+00  0.0000E+00  0.0000E+00  0.0000E+00  0.0000E+00  0.0000E+00
    -43.194  0.0000E+00  0.0000E+00  0.0000E+00  0.0000E+00  0.0000E+00  0.0000E+00  0.0000E+00  0.0000E+00  0.0000E+00
    -42.899  0.0000E+00  0.0000E+00  0.0000E+00  0.0000E+00  0.0000E+00  0.0000E+00  0.0000E+00  0.0000E+00  0.0000E+00
    -42.604  0.0000E+00  0.0000E+00  0.0000E+00  0.0000E+00  0.0000E+00  0.0000E+00  0.0000E+00  0.0000E+00  0.0000E+00
    -42.309  0.0000E+00  0.0000E+00  0.0000E+00  0.0000E+00  0.0000E+00  0.0000E+00  0.0000E+00  0.0000E+00  0.0000E+00
    -42.013  0.6146E+01  0.4805E-06  0.4805E-06  0.4805E-06  0.0000E+00  0.0000E+00  0.0000E+00  0.0000E+00  0.0000E+00
    -41.718  0.0000E+00  0.0000E+00  0.0000E+00  0.0000E+00  0.0000E+00  0.0000E+00  0.0000E+00  0.0000E+00  0.0000E+00
    -41.423  0.0000E+00  0.0000E+00  0.0000E+00  0.0000E+00  0.0000E+00  0.0000E+00  0.0000E+00  0.0000E+00  0.0000E+00
    -41.128  0.0000E+00  0.0000E+00  0.0000E+00  0.0000E+00  0.0000E+00  0.0000E+00  0.0000E+00  0.0000E+00  0.0000E+00
    -40.833  0.0000E+00  0.0000E+00  0.0000E+00  0.0000E+00  0.0000E+00  0.0000E+00  0.0000E+00  0.0000E+00  0.0000E+00
    -40.537  0.0000E+00  0.0000E+00  0.0000E+00  0.0000E+00  0.0000E+00  0.0000E+00  0.0000E+00  0.0000E+00  0.0000E+00
    -40.242  0.0000E+00  0.0000E+00  0.0000E+00  0.0000E+00  0.0000E+00  0.0000E+00  0.0000E+00  0.0000E+00  0.0000E+00
    -39.947  0.0000E+00  0.0000E+00  0.0000E+00  0.0000E+00  0.0000E+00  0.0000E+00  0.0000E+00  0.0000E+00  0.0000E+00
    -39.652  0.0000E+00  0.0000E+00  0.0000E+00  0.0000E+00  0.0000E+00  0.0000E+00  0.0000E+00  0.0000E+00  0.0000E+00
    -39.356  0.0000E+00  0.0000E+00  0.0000E+00  0.0000E+00  0.0000E+00  0.0000E+00  0.0000E+00  0.0000E+00  0.0000E+00
    -39.061  0.0000E+00  0.0000E+00  0.0000E+00  0.0000E+00  0.0000E+00  0.0000E+00  0.0000E+00  0.0000E+00  0.0000E+00
    -38.766  0.0000E+00  0.0000E+00  0.0000E+00  0.0000E+00  0.0000E+00  0.0000E+00  0.0000E+00  0.0000E+00  0.0000E+00
    -38.471  0.0000E+00  0.0000E+00  0.0000E+00  0.0000E+00  0.0000E+00  0.0000E+00  0.0000E+00  0.0000E+00  0.0000E+00
    -38.176  0.0000E+00  0.0000E+00  0.0000E+00  0.0000E+00  0.0000E+00  0.0000E+00  0.0000E+00  0.0000E+00  0.0000E+00
    -37.880  0.0000E+00  0.0000E+00  0.0000E+00  0.0000E+00  0.0000E+00  0.0000E+00  0.0000E+00  0.0000E+00  0.0000E+00
    -37.585  0.0000E+00  0.0000E+00  0.0000E+00  0.0000E+00  0.0000E+00  0.0000E+00  0.0000E+00  0.0000E+00  0.0000E+00
    -37.290  0.0000E+00  0.0000E+00  0.0000E+00  0.0000E+00  0.0000E+00  0.0000E+00  0.0000E+00  0.0000E+00  0.0000E+00
    -36.995  0.0000E+00  0.0000E+00  0.0000E+00  0.0000E+00  0.0000E+00  0.0000E+00  0.0000E+00  0.0000E+00  0.0000E+00
    -36.699  0.0000E+00  0.0000E+00  0.0000E+00  0.0000E+00  0.0000E+00  0.0000E+00  0.0000E+00  0.0000E+00  0.0000E+00
    -36.404  0.0000E+00  0.0000E+00  0.0000E+00  0.0000E+00  0.0000E+00  0.0000E+00  0.0000E+00  0.0000E+00  0.0000E+00
    -36.109  0.0000E+00  0.0000E+00  0.0000E+00  0.0000E+00  0.0000E+00  0.0000E+00  0.0000E+00  0.0000E+00  0.0000E+00
    -35.814  0.0000E+00  0.0000E+00  0.0000E+00  0.0000E+00  0.0000E+00  0.0000E+00  0.0000E+00  0.0000E+00  0.0000E+00
    -35.519  0.0000E+00  0.0000E+00  0.0000E+00  0.0000E+00  0.0000E+00  0.0000E+00  0.0000E+00  0.0000E+00  0.0000E+00
    -35.223  0.0000E+00  0.0000E+00  0.0000E+00  0.0000E+00  0.0000E+00  0.0000E+00  0.0000E+00  0.0000E+00  0.0000E+00
    -34.928  0.0000E+00  0.0000E+00  0.0000E+00  0.0000E+00  0.0000E+00  0.0000E+00  0.0000E+00  0.0000E+00  0.0000E+00
    -34.633  0.0000E+00  0.0000E+00  0.0000E+00  0.0000E+00  0.0000E+00  0.0000E+00  0.0000E+00  0.0000E+00  0.0000E+00
    -34.338  0.0000E+00  0.0000E+00  0.0000E+00  0.0000E+00  0.0000E+00  0.0000E+00  0.0000E+00  0.0000E+00  0.0000E+00
    -34.043  0.0000E+00  0.0000E+00  0.0000E+00  0.0000E+00  0.0000E+00  0.0000E+00  0.0000E+00  0.0000E+00  0.0000E+00
    -33.747  0.0000E+00  0.0000E+00  0.0000E+00  0.0000E+00  0.0000E+00  0.0000E+00  0.0000E+00  0.0000E+00  0.0000E+00
    -33.452  0.0000E+00  0.0000E+00  0.0000E+00  0.0000E+00  0.0000E+00  0.0000E+00  0.0000E+00  0.0000E+00  0.0000E+00
    -33.157  0.0000E+00  0.0000E+00  0.0000E+00  0.0000E+00  0.0000E+00  0.0000E+00  0.0000E+00  0.0000E+00  0.0000E+00
    -32.862  0.0000E+00  0.0000E+00  0.0000E+00  0.0000E+00  0.0000E+00  0.0000E+00  0.0000E+00  0.0000E+00  0.0000E+00
    -32.566  0.0000E+00  0.0000E+00  0.0000E+00  0.0000E+00  0.0000E+00  0.0000E+00  0.0000E+00  0.0000E+00  0.0000E+00
    -32.271  0.0000E+00  0.0000E+00  0.0000E+00  0.0000E+00  0.0000E+00  0.0000E+00  0.0000E+00  0.0000E+00  0.0000E+00
    -31.976  0.0000E+00  0.0000E+00  0.0000E+00  0.0000E+00  0.0000E+00  0.0000E+00  0.0000E+00  0.0000E+00  0.0000E+00
    -31.681  0.0000E+00  0.0000E+00  0.0000E+00  0.0000E+00  0.0000E+00  0.0000E+00  0.0000E+00  0.0000E+00  0.0000E+00
    -31.386  0.0000E+00  0.0000E+00  0.0000E+00  0.0000E+00  0.0000E+00  0.0000E+00  0.0000E+00  0.0000E+00  0.0000E+00
    -31.090  0.0000E+00  0.0000E+00  0.0000E+00  0.0000E+00  0.0000E+00  0.0000E+00  0.0000E+00  0.0000E+00  0.0000E+00
    -30.795  0.0000E+00  0.0000E+00  0.0000E+00  0.0000E+00  0.0000E+00  0.0000E+00  0.0000E+00  0.0000E+00  0.0000E+00
    -30.500  0.0000E+00  0.0000E+00  0.0000E+00  0.0000E+00  0.0000E+00  0.0000E+00  0.0000E+00  0.0000E+00  0.0000E+00
    -30.205  0.0000E+00  0.0000E+00  0.0000E+00  0.0000E+00  0.0000E+00  0.0000E+00  0.0000E+00  0.0000E+00  0.0000E+00
    -29.909  0.0000E+00  0.0000E+00  0.0000E+00  0.0000E+00  0.0000E+00  0.0000E+00  0.0000E+00  0.0000E+00  0.0000E+00
    -29.614  0.0000E+00  0.0000E+00  0.0000E+00  0.0000E+00  0.0000E+00  0.0000E+00  0.0000E+00  0.0000E+00  0.0000E+00
    -29.319  0.0000E+00  0.0000E+00  0.0000E+00  0.0000E+00  0.0000E+00  0.0000E+00  0.0000E+00  0.0000E+00  0.0000E+00
    -29.024  0.0000E+00  0.0000E+00  0.0000E+00  0.0000E+00  0.0000E+00  0.0000E+00  0.0000E+00  0.0000E+00  0.0000E+00
    -28.729  0.0000E+00  0.0000E+00  0.0000E+00  0.0000E+00  0.0000E+00  0.0000E+00  0.0000E+00  0.0000E+00  0.0000E+00
    -28.433  0.0000E+00  0.0000E+00  0.0000E+00  0.0000E+00  0.0000E+00  0.0000E+00  0.0000E+00  0.0000E+00  0.0000E+00
    -28.138  0.0000E+00  0.0000E+00  0.0000E+00  0.0000E+00  0.0000E+00  0.0000E+00  0.0000E+00  0.0000E+00  0.0000E+00
    -27.843  0.0000E+00  0.0000E+00  0.0000E+00  0.0000E+00  0.0000E+00  0.0000E+00  0.0000E+00  0.0000E+00  0.0000E+00
    -27.548  0.0000E+00  0.0000E+00  0.0000E+00  0.0000E+00  0.0000E+00  0.0000E+00  0.0000E+00  0.0000E+00  0.0000E+00
    -27.253  0.0000E+00  0.0000E+00  0.0000E+00  0.0000E+00  0.0000E+00  0.0000E+00  0.0000E+00  0.0000E+00  0.0000E+00
    -26.957  0.0000E+00  0.0000E+00  0.0000E+00  0.0000E+00  0.0000E+00  0.0000E+00  0.0000E+00  0.0000E+00  0.0000E+00
    -26.662  0.0000E+00  0.0000E+00  0.0000E+00  0.0000E+00  0.0000E+00  0.0000E+00  0.0000E+00  0.0000E+00  0.0000E+00
    -26.367  0.0000E+00  0.0000E+00  0.0000E+00  0.0000E+00  0.0000E+00  0.0000E+00  0.0000E+00  0.0000E+00  0.0000E+00
    -26.072  0.0000E+00  0.0000E+00  0.0000E+00  0.0000E+00  0.0000E+00  0.0000E+00  0.0000E+00  0.0000E+00  0.0000E+00
    -25.776  0.0000E+00  0.0000E+00  0.0000E+00  0.0000E+00  0.0000E+00  0.0000E+00  0.0000E+00  0.0000E+00  0.0000E+00
    -25.481  0.0000E+00  0.0000E+00  0.0000E+00  0.0000E+00  0.0000E+00  0.0000E+00  0.0000E+00  0.0000E+00  0.0000E+00
    -25.186  0.0000E+00  0.0000E+00  0.0000E+00  0.0000E+00  0.0000E+00  0.0000E+00  0.0000E+00  0.0000E+00  0.0000E+00
    -24.891  0.0000E+00  0.0000E+00  0.0000E+00  0.0000E+00  0.0000E+00  0.0000E+00  0.0000E+00  0.0000E+00  0.0000E+00
    -24.596  0.0000E+00  0.0000E+00  0.0000E+00  0.0000E+00  0.0000E+00  0.0000E+00  0.0000E+00  0.0000E+00  0.0000E+00
    -24.300  0.0000E+00  0.0000E+00  0.0000E+00  0.0000E+00  0.0000E+00  0.0000E+00  0.0000E+00  0.0000E+00  0.0000E+00
    -24.005  0.0000E+00  0.0000E+00  0.0000E+00  0.0000E+00  0.0000E+00  0.0000E+00  0.0000E+00  0.0000E+00  0.0000E+00
    -23.710  0.0000E+00  0.0000E+00  0.0000E+00  0.0000E+00  0.0000E+00  0.0000E+00  0.0000E+00  0.0000E+00  0.0000E+00
    -23.415  0.0000E+00  0.0000E+00  0.0000E+00  0.0000E+00  0.0000E+00  0.0000E+00  0.0000E+00  0.0000E+00  0.0000E+00
    -23.119  0.0000E+00  0.0000E+00  0.0000E+00  0.0000E+00  0.0000E+00  0.0000E+00  0.0000E+00  0.0000E+00  0.0000E+00
    -22.824  0.0000E+00  0.0000E+00  0.0000E+00  0.0000E+00  0.0000E+00  0.0000E+00  0.0000E+00  0.0000E+00  0.0000E+00
    -22.529  0.0000E+00  0.0000E+00  0.0000E+00  0.0000E+00  0.0000E+00  0.0000E+00  0.0000E+00  0.0000E+00  0.0000E+00
    -22.234  0.0000E+00  0.0000E+00  0.0000E+00  0.0000E+00  0.0000E+00  0.0000E+00  0.0000E+00  0.0000E+00  0.0000E+00
    -21.939  0.0000E+00  0.0000E+00  0.0000E+00  0.0000E+00  0.0000E+00  0.0000E+00  0.0000E+00  0.0000E+00  0.0000E+00
    -21.643  0.0000E+00  0.0000E+00  0.0000E+00  0.0000E+00  0.0000E+00  0.0000E+00  0.0000E+00  0.0000E+00  0.0000E+00
    -21.348  0.0000E+00  0.0000E+00  0.0000E+00  0.0000E+00  0.0000E+00  0.0000E+00  0.0000E+00  0.0000E+00  0.0000E+00
    -21.053  0.4862E-04  0.2931E-07  0.2931E-07  0.2931E-07  0.0000E+00  0.0000E+00  0.0000E+00  0.0000E+00  0.0000E+00
    -20.758  0.2747E-02  0.1056E-03  0.1056E-03  0.1056E-03  0.0000E+00  0.0000E+00  0.0000E+00  0.0000E+00  0.0000E+00
    -20.463  0.6675E-03  0.2935E-03  0.2935E-03  0.2935E-03  0.0000E+00  0.0000E+00  0.0000E+00  0.0000E+00  0.0000E+00
    -20.167  0.0000E+00  0.0000E+00  0.0000E+00  0.0000E+00  0.0000E+00  0.0000E+00  0.0000E+00  0.0000E+00  0.0000E+00
    -19.872  0.0000E+00  0.0000E+00  0.0000E+00  0.0000E+00  0.0000E+00  0.0000E+00  0.0000E+00  0.0000E+00  0.0000E+00
    -19.577  0.0000E+00  0.0000E+00  0.0000E+00  0.0000E+00  0.0000E+00  0.0000E+00  0.0000E+00  0.0000E+00  0.0000E+00
    -19.282  0.0000E+00  0.0000E+00  0.0000E+00  0.0000E+00  0.0000E+00  0.0000E+00  0.0000E+00  0.0000E+00  0.0000E+00
    -18.986  0.0000E+00  0.0000E+00  0.0000E+00  0.0000E+00  0.0000E+00  0.0000E+00  0.0000E+00  0.0000E+00  0.0000E+00
    -18.691  0.0000E+00  0.0000E+00  0.0000E+00  0.0000E+00  0.0000E+00  0.0000E+00  0.0000E+00  0.0000E+00  0.0000E+00
    -18.396  0.0000E+00  0.0000E+00  0.0000E+00  0.0000E+00  0.0000E+00  0.0000E+00  0.0000E+00  0.0000E+00  0.0000E+00
    -18.101  0.0000E+00  0.0000E+00  0.0000E+00  0.0000E+00  0.0000E+00  0.0000E+00  0.0000E+00  0.0000E+00  0.0000E+00
    -17.806  0.0000E+00  0.0000E+00  0.0000E+00  0.0000E+00  0.0000E+00  0.0000E+00  0.0000E+00  0.0000E+00  0.0000E+00
    -17.510  0.0000E+00  0.0000E+00  0.0000E+00  0.0000E+00  0.0000E+00  0.0000E+00  0.0000E+00  0.0000E+00  0.0000E+00
    -17.215  0.0000E+00  0.0000E+00  0.0000E+00  0.0000E+00  0.0000E+00  0.0000E+00  0.0000E+00  0.0000E+00  0.0000E+00
    -16.920  0.0000E+00  0.0000E+00  0.0000E+00  0.0000E+00  0.0000E+00  0.0000E+00  0.0000E+00  0.0000E+00  0.0000E+00
    -16.625  0.0000E+00  0.0000E+00  0.0000E+00  0.0000E+00  0.0000E+00  0.0000E+00  0.0000E+00  0.0000E+00  0.0000E+00
    -16.329  0.0000E+00  0.0000E+00  0.0000E+00  0.0000E+00  0.0000E+00  0.0000E+00  0.0000E+00  0.0000E+00  0.0000E+00
    -16.034  0.0000E+00  0.0000E+00  0.0000E+00  0.0000E+00  0.0000E+00  0.0000E+00  0.0000E+00  0.0000E+00  0.0000E+00
    -15.739  0.0000E+00  0.0000E+00  0.0000E+00  0.0000E+00  0.0000E+00  0.0000E+00  0.0000E+00  0.0000E+00  0.0000E+00
    -15.444  0.0000E+00  0.0000E+00  0.0000E+00  0.0000E+00  0.0000E+00  0.0000E+00  0.0000E+00  0.0000E+00  0.0000E+00
    -15.149  0.0000E+00  0.0000E+00  0.0000E+00  0.0000E+00  0.0000E+00  0.0000E+00  0.0000E+00  0.0000E+00  0.0000E+00
    -14.853  0.0000E+00  0.0000E+00  0.0000E+00  0.0000E+00  0.0000E+00  0.0000E+00  0.0000E+00  0.0000E+00  0.0000E+00
    -14.558  0.0000E+00  0.0000E+00  0.0000E+00  0.0000E+00  0.0000E+00  0.0000E+00  0.0000E+00  0.0000E+00  0.0000E+00
    -14.263  0.0000E+00  0.0000E+00  0.0000E+00  0.0000E+00  0.0000E+00  0.0000E+00  0.0000E+00  0.0000E+00  0.0000E+00
    -13.968  0.0000E+00  0.0000E+00  0.0000E+00  0.0000E+00  0.0000E+00  0.0000E+00  0.0000E+00  0.0000E+00  0.0000E+00
    -13.672  0.0000E+00  0.0000E+00  0.0000E+00  0.0000E+00  0.0000E+00  0.0000E+00  0.0000E+00  0.0000E+00  0.0000E+00
    -13.377  0.0000E+00  0.0000E+00  0.0000E+00  0.0000E+00  0.0000E+00  0.0000E+00  0.0000E+00  0.0000E+00  0.0000E+00
    -13.082  0.0000E+00  0.0000E+00  0.0000E+00  0.0000E+00  0.0000E+00  0.0000E+00  0.0000E+00  0.0000E+00  0.0000E+00
    -12.787  0.0000E+00  0.0000E+00  0.0000E+00  0.0000E+00  0.0000E+00  0.0000E+00  0.0000E+00  0.0000E+00  0.0000E+00
    -12.492  0.0000E+00  0.0000E+00  0.0000E+00  0.0000E+00  0.0000E+00  0.0000E+00  0.0000E+00  0.0000E+00  0.0000E+00
    -12.196  0.0000E+00  0.0000E+00  0.0000E+00  0.0000E+00  0.0000E+00  0.0000E+00  0.0000E+00  0.0000E+00  0.0000E+00
    -11.901  0.0000E+00  0.0000E+00  0.0000E+00  0.0000E+00  0.0000E+00  0.0000E+00  0.0000E+00  0.0000E+00  0.0000E+00
    -11.606  0.0000E+00  0.0000E+00  0.0000E+00  0.0000E+00  0.0000E+00  0.0000E+00  0.0000E+00  0.0000E+00  0.0000E+00
    -11.311  0.0000E+00  0.0000E+00  0.0000E+00  0.0000E+00  0.0000E+00  0.0000E+00  0.0000E+00  0.0000E+00  0.0000E+00
    -11.016  0.0000E+00  0.0000E+00  0.0000E+00  0.0000E+00  0.0000E+00  0.0000E+00  0.0000E+00  0.0000E+00  0.0000E+00
    -10.720  0.0000E+00  0.0000E+00  0.0000E+00  0.0000E+00  0.0000E+00  0.0000E+00  0.0000E+00  0.0000E+00  0.0000E+00
    -10.425  0.0000E+00  0.0000E+00  0.0000E+00  0.0000E+00  0.0000E+00  0.0000E+00  0.0000E+00  0.0000E+00  0.0000E+00
    -10.130  0.0000E+00  0.0000E+00  0.0000E+00  0.0000E+00  0.0000E+00  0.0000E+00  0.0000E+00  0.0000E+00  0.0000E+00
     -9.835  0.0000E+00  0.0000E+00  0.0000E+00  0.0000E+00  0.0000E+00  0.0000E+00  0.0000E+00  0.0000E+00  0.0000E+00
     -9.539  0.0000E+00  0.0000E+00  0.0000E+00  0.0000E+00  0.0000E+00  0.0000E+00  0.0000E+00  0.0000E+00  0.0000E+00
     -9.244  0.0000E+00  0.0000E+00  0.0000E+00  0.0000E+00  0.0000E+00  0.0000E+00  0.0000E+00  0.0000E+00  0.0000E+00
     -8.949  0.0000E+00  0.0000E+00  0.0000E+00  0.0000E+00  0.0000E+00  0.0000E+00  0.0000E+00  0.0000E+00  0.0000E+00
     -8.654  0.0000E+00  0.0000E+00  0.0000E+00  0.0000E+00  0.0000E+00  0.0000E+00  0.0000E+00  0.0000E+00  0.0000E+00
     -8.359  0.0000E+00  0.0000E+00  0.0000E+00  0.0000E+00  0.0000E+00  0.0000E+00  0.0000E+00  0.0000E+00  0.0000E+00
     -8.063  0.0000E+00  0.0000E+00  0.0000E+00  0.0000E+00  0.0000E+00  0.0000E+00  0.0000E+00  0.0000E+00  0.0000E+00
     -7.768  0.0000E+00  0.0000E+00  0.0000E+00  0.0000E+00  0.0000E+00  0.0000E+00  0.0000E+00  0.0000E+00  0.0000E+00
     -7.473  0.0000E+00  0.0000E+00  0.0000E+00  0.0000E+00  0.0000E+00  0.0000E+00  0.0000E+00  0.0000E+00  0.0000E+00
     -7.178  0.0000E+00  0.0000E+00  0.0000E+00  0.0000E+00  0.0000E+00  0.0000E+00  0.0000E+00  0.0000E+00  0.0000E+00
     -6.882  0.0000E+00  0.0000E+00  0.0000E+00  0.0000E+00  0.0000E+00  0.0000E+00  0.0000E+00  0.0000E+00  0.0000E+00
     -6.587  0.0000E+00  0.0000E+00  0.0000E+00  0.0000E+00  0.0000E+00  0.0000E+00  0.0000E+00  0.0000E+00  0.0000E+00
     -6.292  0.0000E+00  0.0000E+00  0.0000E+00  0.0000E+00  0.0000E+00  0.0000E+00  0.0000E+00  0.0000E+00  0.0000E+00
     -5.997  0.0000E+00  0.0000E+00  0.0000E+00  0.0000E+00  0.0000E+00  0.0000E+00  0.0000E+00  0.0000E+00  0.0000E+00
     -5.702  0.0000E+00  0.0000E+00  0.0000E+00  0.0000E+00  0.0000E+00  0.0000E+00  0.0000E+00  0.0000E+00  0.0000E+00
     -5.406  0.0000E+00  0.0000E+00  0.0000E+00  0.0000E+00  0.0000E+00  0.0000E+00  0.0000E+00  0.0000E+00  0.0000E+00
     -5.111  0.0000E+00  0.0000E+00  0.0000E+00  0.0000E+00  0.0000E+00  0.0000E+00  0.0000E+00  0.0000E+00  0.0000E+00
     -4.816  0.0000E+00  0.0000E+00  0.0000E+00  0.0000E+00  0.0000E+00  0.0000E+00  0.0000E+00  0.0000E+00  0.0000E+00
     -4.521  0.0000E+00  0.0000E+00  0.0000E+00  0.0000E+00  0.0000E+00  0.0000E+00  0.0000E+00  0.0000E+00  0.0000E+00
     -4.226  0.0000E+00  0.0000E+00  0.0000E+00  0.0000E+00  0.0000E+00  0.0000E+00  0.0000E+00  0.0000E+00  0.0000E+00
     -3.930  0.6725E-05  0.6689E-04  0.6689E-04  0.6689E-04  0.0000E+00  0.0000E+00  0.0000E+00  0.0000E+00  0.0000E+00
     -3.635  0.6712E-03  0.1666E-02  0.1666E-02  0.1666E-02  0.0000E+00  0.0000E+00  0.0000E+00  0.0000E+00  0.0000E+00
     -3.340  0.1345E-01  0.3012E-02  0.3012E-02  0.3012E-02  0.0000E+00  0.0000E+00  0.0000E+00  0.0000E+00  0.0000E+00
     -3.045  0.7864E-02  0.6586E-03  0.6586E-03  0.6586E-03  0.0000E+00  0.0000E+00  0.0000E+00  0.0000E+00  0.0000E+00
     -2.749  0.2097E-02  0.1210E-02  0.1210E-02  0.1210E-02  0.0000E+00  0.0000E+00  0.0000E+00  0.0000E+00  0.0000E+00
     -2.454  0.2092E-02  0.1547E-02  0.1547E-02  0.1547E-02  0.0000E+00  0.0000E+00  0.0000E+00  0.0000E+00  0.0000E+00
     -2.159  0.1438E-02  0.1938E-02  0.1938E-02  0.1938E-02  0.0000E+00  0.0000E+00  0.0000E+00  0.0000E+00  0.0000E+00
     -1.864  0.2099E-02  0.2382E-02  0.2382E-02  0.2382E-02  0.0000E+00  0.0000E+00  0.0000E+00  0.0000E+00  0.0000E+00
     -1.569  0.1470E-02  0.1603E-02  0.1603E-02  0.1603E-02  0.0000E+00  0.0000E+00  0.0000E+00  0.0000E+00  0.0000E+00
     -1.273  0.1736E-03  0.5969E-03  0.5969E-03  0.5969E-03  0.0000E+00  0.0000E+00  0.0000E+00  0.0000E+00  0.0000E+00
     -0.978  0.0000E+00  0.0000E+00  0.0000E+00  0.0000E+00  0.0000E+00  0.0000E+00  0.0000E+00  0.0000E+00  0.0000E+00
     -0.683  0.0000E+00  0.0000E+00  0.0000E+00  0.0000E+00  0.0000E+00  0.0000E+00  0.0000E+00  0.0000E+00  0.0000E+00
     -0.388  0.0000E+00  0.0000E+00  0.0000E+00  0.0000E+00  0.0000E+00  0.0000E+00  0.0000E+00  0.0000E+00  0.0000E+00
     -0.092  0.0000E+00  0.0000E+00  0.0000E+00  0.0000E+00  0.0000E+00  0.0000E+00  0.0000E+00  0.0000E+00  0.0000E+00