    2    2  199    1
  0.8511081E+01  0.2887420E-09  0.2887420E-09  0.2887420E-09  0.5000000E-15
  1.000000000000000E-004
  CAR 
 unknown system                          
     10   1099     12
 
  0.0000000E+00  0.0000000E+00  0.0000000E+00  0.4551661E-03
    1      -42.120770   1.000000
    2      -21.063565   1.000000
    3       -1.149439   1.000000
    4       -1.149422   1.000000
    5       -1.149422   1.000000
    6        7.746063   0.000000
    7       22.526726   0.000000
    8       22.526775   0.000000
    9       22.526776   0.000000
   10       22.957581   0.000000
   11       22.957665   0.000000
   12       22.957666   0.000000
 
  0.7692308E-01  0.0000000E+00  0.0000000E+00  0.9103323E-03
    1      -42.117832   1.000000
    2      -21.041321   1.000000
    3       -1.319924   1.000000
    4       -1.162791   1.000000
    5       -1.162777   1.000000
    6        7.924901   0.000000
    7       20.583694   0.000000
    8       21.652920   0.000000
    9       21.652970   0.000000
   10       23.700901   0.000000
   11       23.700968   0.000000
   12       23.803552   0.000000
 
  0.1538462E+00  0.0000000E+00  0.0000000E+00  0.9103323E-03
    1      -42.109427   1.000000
    2      -20.978465   1.000000
    3       -1.764533   1.000000
    4       -1.199295   1.000000
    5       -1.199282   1.000000
    6        8.374892   0.000000
    7       18.498294   0.000000
    8       20.512889   0.000000
    9       20.512936   0.000000
   10       24.450312   0.000000
   11       24.651392   0.000000
   12       24.651461   0.000000
 
  0.2307692E+00  0.0000000E+00  0.0000000E+00  0.9103323E-03
    1      -42.097478   1.000000
    2      -20.887148   1.000000
    3       -2.338066   1.000000
    4       -1.249593   1.000000
    5       -1.249580   1.000000
    6        8.900910   0.000000
    7       16.903205   0.000000
    8       19.436244   0.000000
    9       19.436289   0.000000
   10       25.303078   0.000000
   11       25.784381   0.000000
   12       25.784450   0.000000
 
  0.3076923E+00  0.0000000E+00  0.0000000E+00  0.9103323E-03
    1      -42.084878   1.000000
    2      -20.787387   1.000000
    3       -2.897535   1.000000
    4       -1.301541   1.000000
    5       -1.301531   1.000000
    6        9.299328   0.000000
    7       15.907476   0.000000
    8       18.550723   0.000000
    9       18.550768   0.000000
   10       26.369939   0.000000
   11       27.094905   0.000000
   12       27.094972   0.000000
 
  0.3846154E+00  0.0000000E+00  0.0000000E+00  0.9103323E-03
    1      -42.074381   1.000000
    2      -20.701873   1.000000
    3       -3.332881   1.000000
    4       -1.343500   1.000000
    5       -1.343491   1.000000
    6        9.476223   0.000000
    7       15.458414   0.000000
    8       17.929070   0.000000
    9       17.929116   0.000000
   10       27.561977   0.000000
   11       28.417875   0.000000
   12       28.417938   0.000000
 
  0.4615385E+00  0.0000000E+00  0.0000000E+00  0.9103323E-03
    1      -42.068453   1.000000
    2      -20.652618   1.000000
    3       -3.569588   1.000000
    4       -1.366759   1.000000
    5       -1.366750   1.000000
    6        9.507629   0.000000
    7       15.337872   0.000000
    8       17.609767   0.000000
    9       17.609812   0.000000
   10       28.615962   0.000000
   11       29.353848   0.000000
   12       29.353907   0.000000
 
  0.0000000E+00  0.7692308E-01  0.0000000E+00  0.9103323E-03
    1      -42.117832   1.000000
    2      -21.041321   1.000000
    3       -1.319924   1.000000
    4       -1.162791   1.000000
    5       -1.162777   1.000000
    6        7.924901   0.000000
    7       20.583694   0.000000
    8       21.652920   0.000000
    9       21.652970   0.000000
   10       23.700901   0.000000
   11       23.700968   0.000000
   12       23.803552   0.000000
 
  0.7692308E-01  0.7692308E-01  0.0000000E+00  0.9103323E-03
    1      -42.116822   1.000000
    2      -21.033511   1.000000
    3       -1.302567   1.000000
    4       -1.206718   1.000000
    5       -1.206707   1.000000
    6        7.992060   0.000000
    7       21.124493   0.000000
    8       21.124536   0.000000
    9       21.474749   0.000000
   10       21.667571   0.000000
   11       24.883671   0.000000
   12       24.883719   0.000000
 
  0.1538462E+00  0.7692308E-01  0.0000000E+00  0.9103323E-03
    1      -42.110211   1.000000
    2      -20.983175   1.000000
    3       -1.641984   1.000000
    4       -1.270272   1.000000
    5       -1.226489   1.000000
    6        8.372815   0.000000
    7       19.079983   0.000000
    8       20.383217   0.000000
    9       20.674019   0.000000
   10       22.092293   0.000000
   11       25.764693   0.000000
   12       25.961255   0.000000
 
  0.2307692E+00  0.7692308E-01  0.0000000E+00  0.9103323E-03
    1      -42.099537   1.000000
    2      -20.900166   1.000000
    3       -2.170885   1.000000
    4       -1.338004   1.000000
    5       -1.266257   1.000000
    6        8.907277   0.000000
    7       17.297879   0.000000
    8       19.562281   0.000000
    9       19.604335   0.000000
   10       23.096084   0.000000
   11       26.585915   0.000000
   12       26.927885   0.000000
 
  0.3076923E+00  0.7692308E-01  0.0000000E+00  0.9103323E-03
    1      -42.087160   1.000000
    2      -20.801342   1.000000
    3       -2.728826   1.000000
    4       -1.393970   1.000000
    5       -1.334074   1.000000
    6        9.390197   0.000000
    7       16.079019   0.000000
    8       18.694592   0.000000
    9       18.779876   0.000000
   10       24.324427   0.000000
   11       27.614965   0.000000
   12       27.973681   0.000000
 
  0.3846154E+00  0.7692308E-01  0.0000000E+00  0.9103323E-03
    1      -42.075985   1.000000
    2      -20.709301   1.000000
    3       -3.198041   1.000000
    4       -1.425708   1.000000
    5       -1.413678   1.000000
    6        9.669715   0.000000
    7       15.433358   0.000000
    8       18.043502   0.000000
    9       18.148217   0.000000
   10       25.707182   0.000000
   11       28.720666   0.000000
   12       29.026069   0.000000
 
  0.4615385E+00  0.7692308E-01  0.0000000E+00  0.9103323E-03
    1      -42.068565   1.000000
    2      -20.646765   1.000000
    3       -3.494731   1.000000
    4       -1.486261   1.000000
    5       -1.426752   1.000000
    6        9.753934   0.000000
    7       15.202096   0.000000
    8       17.686875   0.000000
    9       17.747160   0.000000
   10       27.133334   0.000000
   11       29.374993   0.000000
   12       29.715028   0.000000
 
 -0.4615385E+00  0.7692308E-01  0.0000000E+00  0.9103323E-03
    1      -42.066583   1.000000
    2      -20.630097   1.000000
    3       -3.570041   1.000000
    4       -1.535195   1.000000
    5       -1.397449   1.000000
    6        9.758826   0.000000
    7       15.155912   0.000000
    8       17.622292   0.000000
    9       17.626068   0.000000
   10       28.390291   0.000000
   11       28.870394   0.000000
   12       29.502226   0.000000
 
 -0.3846154E+00  0.7692308E-01  0.0000000E+00  0.9103323E-03
    1      -42.070480   1.000000
    2      -20.663733   1.000000
    3       -3.412112   1.000000
    4       -1.549223   1.000000
    5       -1.344411   1.000000
    6        9.730919   0.000000
    7       15.220279   0.000000
    8       17.812416   0.000000
    9       17.827140   0.000000
   10       27.690527   0.000000
   11       28.366082   0.000000
   12       29.052688   0.000000
 
 -0.3076923E+00  0.7692308E-01  0.0000000E+00  0.9103323E-03
    1      -42.079415   1.000000
    2      -20.738869   1.000000
    3       -3.047435   1.000000
    4       -1.524303   1.000000
    5       -1.279062   1.000000
    6        9.585049   0.000000
    7       15.542791   0.000000
    8       18.269189   0.000000
    9       18.314640   0.000000
   10       26.465151   0.000000
   11       26.861480   0.000000
   12       28.707754   0.000000
 
 -0.2307692E+00  0.7692308E-01  0.0000000E+00  0.9103323E-03
    1      -42.091347   1.000000
    2      -20.836120   1.000000
    3       -2.539537   1.000000
    4       -1.463876   1.000000
    5       -1.215611   1.000000
    6        9.223896   0.000000
    7       16.345102   0.000000
    8       18.894167   0.000000
    9       19.121001   0.000000
   10       25.366013   0.000000
   11       25.401945   0.000000
   12       27.820471   0.000000
 
 -0.1538462E+00  0.7692308E-01  0.0000000E+00  0.9103323E-03
    1      -42.103483   1.000000
    2      -20.931879   1.000000
    3       -1.988633   1.000000
    4       -1.376782   1.000000
    5       -1.168471   1.000000
    6        8.701262   0.000000
    7       17.702147   0.000000
    8       19.618229   0.000000
    9       20.182959   0.000000
   10       24.184079   0.000000
   11       24.496865   0.000000
   12       26.804170   0.000000
 
 -0.7692308E-01  0.7692308E-01  0.0000000E+00  0.9103323E-03
    1      -42.112979   1.000000
    2      -21.004984   1.000000
    3       -1.536084   1.000000
    4       -1.268489   1.000000
    5       -1.149091   1.000000
    6        8.201795   0.000000
    7       19.418717   0.000000
    8       20.423376   0.000000
    9       21.310427   0.000000
   10       23.386771   0.000000
   11       23.908989   0.000000
   12       25.600104   0.000000
 
  0.0000000E+00  0.1538462E+00  0.0000000E+00  0.9103323E-03
    1      -42.109427   1.000000
    2      -20.978465   1.000000
    3       -1.764533   1.000000
    4       -1.199295   1.000000
    5       -1.199282   1.000000
    6        8.374892   0.000000
    7       18.498294   0.000000
    8       20.512889   0.000000
    9       20.512936   0.000000
   10       24.450312   0.000000
   11       24.651392   0.000000
   12       24.651460   0.000000
 
  0.7692308E-01  0.1538462E+00  0.0000000E+00  0.9103323E-03
    1      -42.110211   1.000000
    2      -20.983175   1.000000
    3       -1.641984   1.000000
    4       -1.270272   1.000000
    5       -1.226489   1.000000
    6        8.372815   0.000000
    7       19.079983   0.000000
    8       20.383217   0.000000
    9       20.674019   0.000000
   10       22.092293   0.000000
   11       25.764693   0.000000
   12       25.961255   0.000000
 
  0.1538462E+00  0.1538462E+00  0.0000000E+00  0.9103323E-03
    1      -42.105779   1.000000
    2      -20.945557   1.000000
    3       -1.735369   1.000000
    4       -1.364227   1.000000
    5       -1.364214   1.000000
    6        8.692670   0.000000
    7       19.485391   0.000000
    8       20.020658   0.000000
    9       20.020700   0.000000
   10       20.078318   0.000000
   11       27.526598   0.000000
   12       27.526645   0.000000
 
  0.2307692E+00  0.1538462E+00  0.0000000E+00  0.9103323E-03
    1      -42.096957   1.000000
    2      -20.872194   1.000000
    3       -2.139440   1.000000
    4       -1.458824   1.000000
    5       -1.437008   1.000000
    6        9.223508   0.000000
    7       17.732738   0.000000
    8       19.245898   0.000000
    9       19.523529   0.000000
   10       20.757652   0.000000
   11       28.612146   0.000000
   12       28.670416   0.000000
 
  0.3076923E+00  0.1538462E+00  0.0000000E+00  0.9103323E-03
    1      -42.085912   1.000000
    2      -20.778594   1.000000
    3       -2.637860   1.000000
    4       -1.532824   1.000000
    5       -1.532430   1.000000
    6        9.793098   0.000000
    7       16.282566   0.000000
    8       18.502529   0.000000
    9       18.957754   0.000000
   10       21.912471   0.000000
   11       29.441395   0.000000
   12       29.467491   0.000000
 
  0.3846154E+00  0.1538462E+00  0.0000000E+00  0.9103323E-03
    1      -42.075087   1.000000
    2      -20.685063   1.000000
    3       -3.083705   1.000000
    4       -1.665870   1.000000
    5       -1.568961   1.000000
    6       10.221749   0.000000
    7       15.371461   0.000000
    8       17.961123   0.000000
    9       18.418498   0.000000
   10       23.255363   0.000000
   11       30.152158   0.000000
   12       30.229473   0.000000
 
  0.4615385E+00  0.1538462E+00  0.0000000E+00  0.9103323E-03
    1      -42.067008   1.000000
    2      -20.614259   1.000000
    3       -3.389078   1.000000
    4       -1.807148   1.000000
    5       -1.560898   1.000000
    6       10.418183   0.000000
    7       14.933658   0.000000
    8       17.675103   0.000000
    9       18.002648   0.000000
   10       24.695650   0.000000
   11       30.342800   0.000000
   12       30.571282   0.000000
 
 -0.4615385E+00  0.1538462E+00  0.0000000E+00  0.9103323E-03
    1      -42.063501   1.000000
    2      -20.584321   1.000000
    3       -3.501993   1.000000
    4       -1.921209   1.000000
    5       -1.510304   1.000000
    6       10.446883   0.000000
    7       14.764163   0.000000
    8       17.634243   0.000000
    9       17.785058   0.000000
   10       26.133320   0.000000
   11       29.570028   0.000000
   12       30.174798   0.000000
 
 -0.3846154E+00  0.1538462E+00  0.0000000E+00  0.9103323E-03
    1      -42.065397   1.000000
    2      -20.603468   1.000000
    3       -3.406234   1.000000
    4       -1.978209   1.000000
    5       -1.428195   1.000000
    6       10.387923   0.000000
    7       14.733874   0.000000
    8       17.784746   0.000000
    9       17.815155   0.000000
   10       27.360795   0.000000
   11       28.509895   0.000000
   12       28.887695   0.000000
 
 -0.3076923E+00  0.1538462E+00  0.0000000E+00  0.9103323E-03
    1      -42.072231   1.000000
    2      -20.666393   1.000000
    3       -3.125207   1.000000
    4       -1.957953   1.000000
    5       -1.332482   1.000000
    6       10.196878   0.000000
    7       14.933185   0.000000
    8       18.072734   0.000000
    9       18.117111   0.000000
   10       27.058959   0.000000
   11       27.278218   0.000000
   12       28.525833   0.000000
 
 -0.2307692E+00  0.1538462E+00  0.0000000E+00  0.9103323E-03
    1      -42.082502   1.000000
    2      -20.756932   1.000000
    3       -2.725182   1.000000
    4       -1.847757   1.000000
    5       -1.244613   1.000000
    6        9.792908   0.000000
    7       15.540033   0.000000
    8       18.458122   0.000000
    9       18.683228   0.000000
   10       25.791162   0.000000
   11       26.001046   0.000000
   12       28.688333   0.000000
 
 -0.1538462E+00  0.1538462E+00  0.0000000E+00  0.9103323E-03
    1      -42.093744   1.000000
    2      -20.852474   1.000000
    3       -2.313391   1.000000
    4       -1.640512   1.000000
    5       -1.185080   1.000000
    6        9.235212   0.000000
    7       16.564258   0.000000
    8       18.932352   0.000000
    9       19.444615   0.000000
   10       24.673772   0.000000
   11       25.104083   0.000000
   12       28.152859   0.000000
 
 -0.7692308E-01  0.1538462E+00  0.0000000E+00  0.9103323E-03
    1      -42.103483   1.000000
    2      -20.931879   1.000000
    3       -1.988633   1.000000
    4       -1.376782   1.000000
    5       -1.168471   1.000000
    6        8.701262   0.000000
    7       17.702147   0.000000
    8       19.618229   0.000000
    9       20.182959   0.000000
   10       24.184079   0.000000
   11       24.496865   0.000000
   12       26.804170   0.000000
 
  0.0000000E+00  0.2307692E+00  0.0000000E+00  0.9103323E-03
    1      -42.097478   1.000000
    2      -20.887148   1.000000
    3       -2.338066   1.000000
    4       -1.249593   1.000000
    5       -1.249580   1.000000
    6        8.900910   0.000000
    7       16.903205   0.000000
    8       19.436244   0.000000
    9       19.436289   0.000000
   10       25.303076   0.000000
   11       25.784381   0.000000
   12       25.784450   0.000000
 
  0.7692308E-01  0.2307692E+00  0.0000000E+00  0.9103323E-03
    1      -42.099537   1.000000
    2      -20.900166   1.000000
    3       -2.170884   1.000000
    4       -1.338004   1.000000
    5       -1.266258   1.000000
    6        8.907277   0.000000
    7       17.297879   0.000000
    8       19.562281   0.000000
    9       19.604335   0.000000
   10       23.096084   0.000000
   11       26.585914   0.000000
   12       26.927885   0.000000
 
  0.1538462E+00  0.2307692E+00  0.0000000E+00  0.9103323E-03
    1      -42.096957   1.000000
    2      -20.872194   1.000000
    3       -2.139440   1.000000
    4       -1.458824   1.000000
    5       -1.437008   1.000000
    6        9.223508   0.000000
    7       17.732738   0.000000
    8       19.245898   0.000000
    9       19.523529   0.000000
   10       20.757652   0.000000
   11       28.612146   0.000000
   12       28.670416   0.000000
 
  0.2307692E+00  0.2307692E+00  0.0000000E+00  0.9103323E-03
    1      -42.090354   1.000000
    2      -20.808862   1.000000
    3       -2.367546   1.000000
    4       -1.583195   1.000000
    5       -1.583181   1.000000
    6        9.755927   0.000000
    7       17.816464   0.000000
    8       18.654741   0.000000
    9       19.343045   0.000000
   10       19.343086   0.000000
   11       30.661538   0.000000
   12       30.661585   0.000000
 
  0.3076923E+00  0.2307692E+00  0.0000000E+00  0.9103323E-03
    1      -42.081377   1.000000
    2      -20.723591   1.000000
    3       -2.758034   1.000000
    4       -1.708135   1.000000
    5       -1.683050   1.000000
    6       10.379105   0.000000
    7       16.592046   0.000000
    8       18.065658   0.000000
    9       19.040074   0.000000
   10       19.932541   0.000000
   11       31.397004   0.000000
   12       31.835995   0.000000
 
  0.3846154E+00  0.2307692E+00  0.0000000E+00  0.9103323E-03
    1      -42.071882   1.000000
    2      -20.634113   1.000000
    3       -3.127056   1.000000
    4       -1.886564   1.000000
    5       -1.737049   1.000000
    6       10.949989   0.000000
    7       15.468831   0.000000
    8       17.631346   0.000000
    9       18.667843   0.000000
   10       21.097611   0.000000
   11       31.722035   0.000000
   12       31.965373   0.000000
 
  0.4615385E+00  0.2307692E+00  0.0000000E+00  0.9103323E-03
    1      -42.064154   1.000000
    2      -20.561959   1.000000
    3       -3.371703   1.000000
    4       -2.108883   1.000000
    5       -1.734192   1.000000
    6       11.314782   0.000000
    7       14.764166   0.000000
    8       17.426843   0.000000
    9       18.306783   0.000000
   10       22.432006   0.000000
   11       31.485654   0.000000
   12       31.893841   0.000000
 
 -0.4615385E+00  0.2307692E+00  0.0000000E+00  0.9103323E-03
    1      -42.059966   1.000000
    2      -20.525363   1.000000
    3       -3.442131   1.000000
    4       -2.325496   1.000000
    5       -1.675214   1.000000
    6       11.418135   0.000000
    7       14.388589   0.000000
    8       17.460353   0.000000
    9       18.038380   0.000000
   10       23.852738   0.000000
   11       30.688713   0.000000
   12       31.379508   0.000000
 
 -0.3846154E+00  0.2307692E+00  0.0000000E+00  0.9103323E-03
    1      -42.060235   1.000000
    2      -20.533900   1.000000
    3       -3.332852   1.000000
    4       -2.476269   1.000000
    5       -1.572365   1.000000
    6       11.315504   0.000000
    7       14.215351   0.000000
    8       17.652201   0.000000
    9       17.925113   0.000000
   10       25.348676   0.000000
   11       29.566293   0.000000
   12       29.979786   0.000000
 
 -0.3076923E+00  0.2307692E+00  0.0000000E+00  0.9103323E-03
    1      -42.064886   1.000000
    2      -20.585197   1.000000
    3       -3.102954   1.000000
    4       -2.485983   1.000000
    5       -1.447625   1.000000
    6       10.997695   0.000000
    7       14.303377   0.000000
    8       17.903866   0.000000
    9       18.002520   0.000000
   10       26.854938   0.000000
   11       28.278059   0.000000
   12       28.295196   0.000000
 
 -0.2307692E+00  0.2307692E+00  0.0000000E+00  0.9103323E-03
    1      -42.072942   1.000000
    2      -20.666318   1.000000
    3       -2.891441   1.000000
    4       -2.254799   1.000000
    5       -1.328985   1.000000
    6       10.448013   0.000000
    7       14.768164   0.000000
    8       18.165150   0.000000
    9       18.271436   0.000000
   10       26.816025   0.000000
   11       27.016310   0.000000
   12       28.153829   0.000000
 
 -0.1538462E+00  0.2307692E+00  0.0000000E+00  0.9103323E-03
    1      -42.082502   1.000000
    2      -20.756932   1.000000
    3       -2.725182   1.000000
    4       -1.847757   1.000000
    5       -1.244613   1.000000
    6        9.792908   0.000000
    7       15.540033   0.000000
    8       18.458122   0.000000
    9       18.683228   0.000000
   10       25.791162   0.000000
   11       26.001046   0.000000
   12       28.688333   0.000000
 
 -0.7692308E-01  0.2307692E+00  0.0000000E+00  0.9103323E-03
    1      -42.091347   1.000000
    2      -20.836120   1.000000
    3       -2.539537   1.000000
    4       -1.463876   1.000000
    5       -1.215611   1.000000
    6        9.223896   0.000000
    7       16.345102   0.000000
    8       18.894167   0.000000
    9       19.121001   0.000000
   10       25.366013   0.000000
   11       25.401945   0.000000
   12       27.820471   0.000000
 
  0.0000000E+00  0.3076923E+00  0.0000000E+00  0.9103323E-03
    1      -42.084878   1.000000
    2      -20.787387   1.000000
    3       -2.897535   1.000000
    4       -1.301542   1.000000
    5       -1.301531   1.000000
    6        9.299328   0.000000
    7       15.907476   0.000000
    8       18.550723   0.000000
    9       18.550768   0.000000
   10       26.369939   0.000000
   11       27.094905   0.000000
   12       27.094971   0.000000
 
  0.7692308E-01  0.3076923E+00  0.0000000E+00  0.9103323E-03
    1      -42.087160   1.000000
    2      -20.801342   1.000000
    3       -2.728826   1.000000
    4       -1.393970   1.000000
    5       -1.334074   1.000000
    6        9.390197   0.000000
    7       16.079019   0.000000
    8       18.694592   0.000000
    9       18.779876   0.000000
   10       24.324427   0.000000
   11       27.614965   0.000000
   12       27.973681   0.000000
 
  0.1538462E+00  0.3076923E+00  0.0000000E+00  0.9103323E-03
    1      -42.085912   1.000000
    2      -20.778594   1.000000
    3       -2.637860   1.000000
    4       -1.532824   1.000000
    5       -1.532430   1.000000
    6        9.793098   0.000000
    7       16.282566   0.000000
    8       18.502529   0.000000
    9       18.957754   0.000000
   10       21.912471   0.000000
   11       29.441395   0.000000
   12       29.467491   0.000000
 
  0.2307692E+00  0.3076923E+00  0.0000000E+00  0.9103323E-03
    1      -42.081377   1.000000
    2      -20.723591   1.000000
    3       -2.758034   1.000000
    4       -1.708135   1.000000
    5       -1.683050   1.000000
    6       10.379105   0.000000
    7       16.592046   0.000000
    8       18.065658   0.000000
    9       19.040074   0.000000
   10       19.932541   0.000000
   11       31.397004   0.000000
   12       31.835995   0.000000
 
  0.3076923E+00  0.3076923E+00  0.0000000E+00  0.9103323E-03
    1      -42.074541   1.000000
    2      -20.647417   1.000000
    3       -3.066803   1.000000
    4       -1.811599   1.000000
    5       -1.811584   1.000000
    6       11.035390   0.000000
    7       16.548057   0.000000
    8       17.571350   0.000000
    9       18.995628   0.000000
   10       18.995668   0.000000
   11       32.740822   0.000000
   12       34.217809   0.000000
 
  0.3846154E+00  0.3076923E+00  0.0000000E+00  0.9103323E-03
    1      -42.067065   1.000000
    2      -20.567088   1.000000
    3       -3.378644   1.000000
    4       -1.955584   1.000000
    5       -1.890895   1.000000
    6       11.679580   0.000000
    7       15.715602   0.000000
    8       17.166517   0.000000
    9       18.828529   0.000000
   10       19.506118   0.000000
   11       32.330902   0.000000
   12       33.519669   0.000000
 
  0.4615385E+00  0.3076923E+00  0.0000000E+00  0.9103323E-03
    1      -42.060667   1.000000
    2      -20.501349   1.000000
    3       -3.565469   1.000000
    4       -2.184636   1.000000
    5       -1.905078   1.000000
    6       12.202861   0.000000
    7       14.846011   0.000000
    8       16.963779   0.000000
    9       18.582531   0.000000
   10       20.593279   0.000000
   11       32.028937   0.000000
   12       33.593422   0.000000
 
 -0.4615385E+00  0.3076923E+00  0.0000000E+00  0.9103323E-03
    1      -42.056711   1.000000
    2      -20.466127   1.000000
    3       -3.566901   1.000000
    4       -2.468723   1.000000
    5       -1.851416   1.000000
    6       12.471469   0.000000
    7       14.186615   0.000000
    8       17.046425   0.000000
    9       18.323399   0.000000
   10       21.884450   0.000000
   11       31.861458   0.000000
   12       33.101029   0.000000
 
 -0.3846154E+00  0.3076923E+00  0.0000000E+00  0.9103323E-03
    1      -42.056118   1.000000
    2      -20.470773   1.000000
    3       -3.366892   1.000000
    4       -2.749751   1.000000
    5       -1.740541   1.000000
    6       12.365332   0.000000
    7       13.806625   0.000000
    8       17.338907   0.000000
    9       18.114059   0.000000
   10       23.363648   0.000000
   11       31.099272   0.000000
   12       31.602762   0.000000
 
 -0.3076923E+00  0.3076923E+00  0.0000000E+00  0.9103323E-03
    1      -42.059092   1.000000
    2      -20.514303   1.000000
    3       -2.989764   1.000000
    4       -2.970477   1.000000
    5       -1.595303   1.000000
    6       11.803498   0.000000
    7       13.871822   0.000000
    8       17.660887   0.000000
    9       17.999743   0.000000
   10       25.065550   0.000000
   11       29.647295   0.000000
   12       29.807669   0.000000
 
 -0.2307692E+00  0.3076923E+00  0.0000000E+00  0.9103323E-03
    1      -42.064886   1.000000
    2      -20.585197   1.000000
    3       -3.102954   1.000000
    4       -2.485983   1.000000
    5       -1.447625   1.000000
    6       10.997695   0.000000
    7       14.303377   0.000000
    8       17.903866   0.000000
    9       18.002520   0.000000
   10       26.854938   0.000000
   11       28.278059   0.000000
   12       28.295196   0.000000
 
 -0.1538462E+00  0.3076923E+00  0.0000000E+00  0.9103323E-03
    1      -42.072231   1.000000
    2      -20.666393   1.000000
    3       -3.125207   1.000000
    4       -1.957953   1.000000
    5       -1.332482   1.000000
    6       10.196878   0.000000
    7       14.933185   0.000000
    8       18.072734   0.000000
    9       18.117111   0.000000
   10       27.058959   0.000000
   11       27.278218   0.000000
   12       28.525833   0.000000
 
 -0.7692308E-01  0.3076923E+00  0.0000000E+00  0.9103323E-03
    1      -42.079415   1.000000
    2      -20.738869   1.000000
    3       -3.047435   1.000000
    4       -1.524303   1.000000
    5       -1.279062   1.000000
    6        9.585049   0.000000
    7       15.542791   0.000000
    8       18.269189   0.000000
    9       18.314640   0.000000
   10       26.465151   0.000000
   11       26.861480   0.000000
   12       28.707754   0.000000
 
  0.0000000E+00  0.3846154E+00  0.0000000E+00  0.9103323E-03
    1      -42.074381   1.000000
    2      -20.701873   1.000000
    3       -3.332881   1.000000
    4       -1.343500   1.000000
    5       -1.343491   1.000000
    6        9.476223   0.000000
    7       15.458414   0.000000
    8       17.929070   0.000000
    9       17.929115   0.000000
   10       27.561977   0.000000
   11       28.417875   0.000000
   12       28.417938   0.000000
 
  0.7692308E-01  0.3846154E+00  0.0000000E+00  0.9103323E-03
    1      -42.075985   1.000000
    2      -20.709301   1.000000
    3       -3.198041   1.000000
    4       -1.425708   1.000000
    5       -1.413678   1.000000
    6        9.669715   0.000000
    7       15.433358   0.000000
    8       18.043502   0.000000
    9       18.148217   0.000000
   10       25.707182   0.000000
   11       28.720666   0.000000
   12       29.026069   0.000000
 
  0.1538462E+00  0.3846154E+00  0.0000000E+00  0.9103323E-03
    1      -42.075087   1.000000
    2      -20.685063   1.000000
    3       -3.083705   1.000000
    4       -1.665870   1.000000
    5       -1.568961   1.000000
    6       10.221749   0.000000
    7       15.371461   0.000000
    8       17.961123   0.000000
    9       18.418498   0.000000
   10       23.255363   0.000000
   11       30.152158   0.000000
   12       30.229473   0.000000
 
  0.2307692E+00  0.3846154E+00  0.0000000E+00  0.9103323E-03
    1      -42.071882   1.000000
    2      -20.634113   1.000000
    3       -3.127056   1.000000
    4       -1.886564   1.000000
    5       -1.737049   1.000000
    6       10.949988   0.000000
    7       15.468831   0.000000
    8       17.631346   0.000000
    9       18.667843   0.000000
   10       21.097611   0.000000
   11       31.722035   0.000000
   12       31.965373   0.000000
 
  0.3076923E+00  0.3846154E+00  0.0000000E+00  0.9103323E-03
    1      -42.067065   1.000000
    2      -20.567088   1.000000
    3       -3.378644   1.000000
    4       -1.955584   1.000000
    5       -1.890895   1.000000
    6       11.679580   0.000000
    7       15.715602   0.000000
    8       17.166517   0.000000
    9       18.828529   0.000000
   10       19.506118   0.000000
   11       32.330902   0.000000
   12       33.519670   0.000000
 
  0.3846154E+00  0.3846154E+00  0.0000000E+00  0.9103323E-03
    1      -42.061735   1.000000
    2      -20.498838   1.000000
    3       -3.667756   1.000000
    4       -1.997707   1.000000
    5       -1.997691   1.000000
    6       12.330346   0.000000
    7       15.697938   0.000000
    8       16.745100   0.000000
    9       18.862288   0.000000
   10       18.862328   0.000000
   11       32.036939   0.000000