 vasp.5.4.4.18Apr17-6-g9f103f2a35 (build Nov 08 2022 17:27:33) complex          
  
 executed on             LinuxIFC date 2022.11.22  17:13:49
 running on   16 total cores
 distrk:  each k-point on   16 cores,    1 groups
 distr:  one band on NCORES_PER_BAND=   4 cores,    4 groups


--------------------------------------------------------------------------------------------------------


 INCAR:
 POTCAR:    PAW_PBE Li_sv 10Sep2004               
 POTCAR:    PAW_PBE F 08Apr2002                   
 POTCAR:    PAW_PBE Li_sv 10Sep2004               
   VRHFIN =Li: 1s2s2p                                                           
   LEXCH  = PE                                                                  
   EATOM  =   202.7858 eV,   14.9043 Ry                                         
                                                                                
   TITEL  = PAW_PBE Li_sv 10Sep2004                                             
   LULTRA =        F    use ultrasoft PP ?                                      
   IUNSCR =        0    unscreen: 0-lin 1-nonlin 2-no                           
   RPACOR =    0.000    partial core radius                                     
   POMASS =    7.010; ZVAL   =    3.000    mass and valenz                      
   RCORE  =    1.700    outmost cutoff radius                                   
   RWIGS  =    2.050; RWIGS  =    1.085    wigner-seitz radius (au A)           
   ENMAX  =  499.034; ENMIN  =  374.276 eV                                      
   ICORE  =        2    local potential                                         
   LCOR   =        T    correct aug charges                                     
   LPAW   =        T    paw PP                                                  
   EAUG   =  628.945                                                            
   RMAX   =    1.732    core radius for proj-oper                               
   RAUG   =    1.300    factor for augmentation sphere                          
   RDEP   =    1.728    radius for radial grids                                 
   RDEPT  =    1.329    core radius for aug-charge                              
                                                                                
   Atomic configuration                                                         
    4 entries                                                                   
     n  l   j            E        occ.                                          
     1  0  0.50       -51.8549   2.0000                                         
     2  0  0.50        -2.8742   1.0000                                         
     2  1  0.50        -1.3606   0.0000                                         
     3  2  1.50        -1.3606   0.0000                                         
   Description                                                                  
     l       E           TYP  RCUT    TYP  RCUT                                 
     0    -51.8548813     23  1.400                                             
     0     -2.8742052     23  1.700                                             
     1     -1.3605826     23  1.400                                             
     2     -1.3605826     23  1.400                                             
  local pseudopotential read in
  atomic valenz-charges read in
  non local Contribution for L=           0  read in
    real space projection operators read in
  non local Contribution for L=           0  read in
    real space projection operators read in
  non local Contribution for L=           1  read in
    real space projection operators read in
    PAW grid and wavefunctions read in
 
   number of l-projection  operators is LMAX  =           3
   number of lm-projection operators is LMMAX =           5
 
 POTCAR:    PAW_PBE F 08Apr2002                   
   VRHFIN =F: s2p5                                                              
   LEXCH  = PE                                                                  
   EATOM  =   659.6475 eV,   48.4827 Ry                                         
                                                                                
   TITEL  = PAW_PBE F 08Apr2002                                                 
   LULTRA =        F    use ultrasoft PP ?                                      
   IUNSCR =        1    unscreen: 0-lin 1-nonlin 2-no                           
   RPACOR =    1.200    partial core radius                                     
   POMASS =   18.998; ZVAL   =    7.000    mass and valenz                      
   RCORE  =    1.520    outmost cutoff radius                                   
   RWIGS  =    1.500; RWIGS  =    0.794    wigner-seitz radius (au A)           
   ENMAX  =  400.000; ENMIN  =  300.000 eV                                      
   ICORE  =        2    local potential                                         
   LCOR   =        T    correct aug charges                                     
   LPAW   =        T    paw PP                                                  
   EAUG   =  613.614                                                            
   RMAX   =    1.555    core radius for proj-oper                               
   RAUG   =    1.300    factor for augmentation sphere                          
   RDEP   =    1.539    radius for radial grids                                 
   RDEPT  =    1.299    core radius for aug-charge                              
                                                                                
   Atomic configuration                                                         
    4 entries                                                                   
     n  l   j            E        occ.                                          
     1  0  0.50      -663.3661   2.0000                                         
     2  0  0.50       -29.8995   2.0000                                         
     2  1  0.50       -11.1114   5.0000                                         
     3  2  1.50       -10.8847   0.0000                                         
   Description                                                                  
     l       E           TYP  RCUT    TYP  RCUT                                 
     0    -29.8995018     23  1.200                                             
     0     -9.5240782     23  1.200                                             
     1    -11.1113914     23  1.520                                             
     1      1.3605826     23  1.520                                             
     2    -10.8846608      7  1.500                                             
  local pseudopotential read in
  partial core-charges read in
  partial kinetic energy density read in
  atomic valenz-charges read in
  non local Contribution for L=           0  read in
    real space projection operators read in
  non local Contribution for L=           0  read in
    real space projection operators read in
  non local Contribution for L=           1  read in
    real space projection operators read in
  non local Contribution for L=           1  read in
    real space projection operators read in
    PAW grid and wavefunctions read in
 
   number of l-projection  operators is LMAX  =           4
   number of lm-projection operators is LMMAX =           8
 

 ----------------------------------------------------------------------------- 
|                                                                             |
|  ADVICE TO THIS USER RUNNING 'VASP/VAMP'   (HEAR YOUR MASTER'S VOICE ...):  |
|                                                                             |
|      You have a (more or less) 'small supercell' and for smaller cells      |
|      it is recommended  to use the reciprocal-space projection scheme!      |
|      The real space optimization is not  efficient for small cells and it   |
|      is also less accurate ...                                              |
|      Therefore set LREAL=.FALSE. in the  INCAR file                         |
|                                                                             |
 ----------------------------------------------------------------------------- 

 Optimization of the real space projectors (new method)

 maximal supplied QI-value         = 22.11
 optimisation between [QCUT,QGAM] = [ 11.50, 23.22] = [ 37.02,150.92] Ry 
 Optimized for a Real-space Cutoff    1.08 Angstroem

   l    n(q)    QCUT    max X(q) W(low)/X(q) W(high)/X(q)  e(spline) 
   0      7    11.497    10.506    0.36E-04    0.62E-04    0.14E-07
   0      7    11.497     8.367    0.65E-04    0.14E-03    0.28E-07
   1      7    11.497     8.983    0.21E-03    0.43E-03    0.90E-07
 Optimization of the real space projectors (new method)

 maximal supplied QI-value         = 24.76
 optimisation between [QCUT,QGAM] = [ 11.64, 23.27] = [ 37.91,151.63] Ry 
 Optimized for a Real-space Cutoff    1.04 Angstroem

   l    n(q)    QCUT    max X(q) W(low)/X(q) W(high)/X(q)  e(spline) 
   0      7    11.635    14.049    0.77E-04    0.36E-03    0.13E-06
   0      7    11.635     8.945    0.12E-03    0.48E-03    0.17E-06
   1      7    11.635     7.086    0.24E-03    0.44E-03    0.21E-06
   1      7    11.635     6.747    0.23E-03    0.35E-03    0.19E-06
  PAW_PBE Li_sv 10Sep2004               :
 energy of atom  1       EATOM= -202.7858
 kinetic energy error for atom=    0.0130 (will be added to EATOM!!)
  PAW_PBE F 08Apr2002                   :
 energy of atom  2       EATOM= -659.6475
 kinetic energy error for atom=    0.0323 (will be added to EATOM!!)
 
 
 POSCAR: Li1 F1                                  
  positions in direct lattice
  velocities in cartesian coordinates
 exchange correlation table for  LEXCH =        8
   RHO(1)=    0.500       N(1)  =     2000
   RHO(2)=  100.500       N(2)  =     4000

 VTST: version 3.2, (02/03/18)

 CHAIN: initializing optimizer
 
 OPT: Using VASP Conjugate-Gradient optimizer
 CHAIN: Read ICHAIN            0
 
 POSCAR: Li1 F1                                  
  positions in direct lattice
  velocities in cartesian coordinates
 


--------------------------------------------------------------------------------------------------------


 ion  position               nearest neighbor table
   1  0.000  0.000  0.000-   2 2.04   2 2.04   2 2.04   2 2.04   2 2.04   2 2.04
   2  0.500  0.500  0.500-   1 2.04   1 2.04   1 2.04   1 2.04   1 2.04   1 2.04
 

IMPORTANT INFORMATION: All symmetrisations will be switched off!
NOSYMM: (Re-)initialisation of all symmetry stuff for point group C_1.

 
 

Automatic generation of k-mesh.
 generate k-points for:   13   13   13
Space group operators:
 irot       det(A)        alpha          n_x          n_y          n_z        tau_x        tau_y        tau_z
    1     1.000000     0.000000     1.000000     0.000000     0.000000     0.000000     0.000000     0.000000
 
 Subroutine IBZKPT returns following result:
 ===========================================
 
 Found   1099 irreducible k-points:
 
 Following reciprocal coordinates:
            Coordinates               Weight
  0.000000  0.000000  0.000000      1.000000
  0.076923  0.000000  0.000000      2.000000
  0.153846  0.000000  0.000000      2.000000
  0.230769  0.000000  0.000000      2.000000
  0.307692  0.000000  0.000000      2.000000
  0.384615  0.000000  0.000000      2.000000
  0.461538  0.000000  0.000000      2.000000
  0.000000  0.076923  0.000000      2.000000
  0.076923  0.076923  0.000000      2.000000
  0.153846  0.076923  0.000000      2.000000
  0.230769  0.076923  0.000000      2.000000
  0.307692  0.076923  0.000000      2.000000
  0.384615  0.076923  0.000000      2.000000
  0.461538  0.076923  0.000000      2.000000
 -0.461538  0.076923  0.000000      2.000000
 -0.384615  0.076923  0.000000      2.000000
 -0.307692  0.076923  0.000000      2.000000
 -0.230769  0.076923  0.000000      2.000000
 -0.153846  0.076923  0.000000      2.000000
 -0.076923  0.076923  0.000000      2.000000
  0.000000  0.153846  0.000000      2.000000
  0.076923  0.153846  0.000000      2.000000
  0.153846  0.153846  0.000000      2.000000
  0.230769  0.153846  0.000000      2.000000
  0.307692  0.153846  0.000000      2.000000
  0.384615  0.153846  0.000000      2.000000
  0.461538  0.153846  0.000000      2.000000
 -0.461538  0.153846  0.000000      2.000000
 -0.384615  0.153846  0.000000      2.000000
 -0.307692  0.153846  0.000000      2.000000
 -0.230769  0.153846  0.000000      2.000000
 -0.153846  0.153846  0.000000      2.000000
 -0.076923  0.153846  0.000000      2.000000
  0.000000  0.230769  0.000000      2.000000
  0.076923  0.230769  0.000000      2.000000
  0.153846  0.230769  0.000000      2.000000
  0.230769  0.230769  0.000000      2.000000
  0.307692  0.230769  0.000000      2.000000
  0.384615  0.230769  0.000000      2.000000
  0.461538  0.230769  0.000000      2.000000
 -0.461538  0.230769  0.000000      2.000000
 -0.384615  0.230769  0.000000      2.000000
 -0.307692  0.230769  0.000000      2.000000
 -0.230769  0.230769  0.000000      2.000000
 -0.153846  0.230769  0.000000      2.000000
 -0.076923  0.230769  0.000000      2.000000
  0.000000  0.307692  0.000000      2.000000
  0.076923  0.307692  0.000000      2.000000
  0.153846  0.307692  0.000000      2.000000
  0.230769  0.307692  0.000000      2.000000
  0.307692  0.307692  0.000000      2.000000
  0.384615  0.307692  0.000000      2.000000
  0.461538  0.307692  0.000000      2.000000
 -0.461538  0.307692  0.000000      2.000000
 -0.384615  0.307692  0.000000      2.000000
 -0.307692  0.307692  0.000000      2.000000
 -0.230769  0.307692  0.000000      2.000000
 -0.153846  0.307692  0.000000      2.000000
 -0.076923  0.307692  0.000000      2.000000
  0.000000  0.384615  0.000000      2.000000
  0.076923  0.384615  0.000000      2.000000
  0.153846  0.384615  0.000000      2.000000
  0.230769  0.384615  0.000000      2.000000
  0.307692  0.384615  0.000000      2.000000
  0.384615  0.384615  0.000000      2.000000
  0.461538  0.384615  0.000000      2.000000
 -0.461538  0.384615  0.000000      2.000000
 -0.384615  0.384615  0.000000      2.000000
 -0.307692  0.384615  0.000000      2.000000
 -0.230769  0.384615  0.000000      2.000000
 -0.153846  0.384615  0.000000      2.000000
 -0.076923  0.384615  0.000000      2.000000
  0.000000  0.461538  0.000000      2.000000
  0.076923  0.461538  0.000000      2.000000
  0.153846  0.461538  0.000000      2.000000
  0.230769  0.461538  0.000000      2.000000
  0.307692  0.461538  0.000000      2.000000
  0.384615  0.461538  0.000000      2.000000
  0.461538  0.461538  0.000000      2.000000
 -0.461538  0.461538  0.000000      2.000000
 -0.384615  0.461538  0.000000      2.000000
 -0.307692  0.461538  0.000000      2.000000
 -0.230769  0.461538  0.000000      2.000000
 -0.153846  0.461538  0.000000      2.000000
 -0.076923  0.461538  0.000000      2.000000
  0.000000  0.000000  0.076923      2.000000
  0.076923  0.000000  0.076923      2.000000
  0.153846  0.000000  0.076923      2.000000
  0.230769  0.000000  0.076923      2.000000
  0.307692  0.000000  0.076923      2.000000
  0.384615  0.000000  0.076923      2.000000
  0.461538  0.000000  0.076923      2.000000
 -0.461538  0.000000  0.076923      2.000000
 -0.384615  0.000000  0.076923      2.000000
 -0.307692  0.000000  0.076923      2.000000
 -0.230769  0.000000  0.076923      2.000000
 -0.153846  0.000000  0.076923      2.000000
 -0.076923  0.000000  0.076923      2.000000
  0.000000  0.076923  0.076923      2.000000
  0.076923  0.076923  0.076923      2.000000
  0.153846  0.076923  0.076923      2.000000
  0.230769  0.076923  0.076923      2.000000
  0.307692  0.076923  0.076923      2.000000
  0.384615  0.076923  0.076923      2.000000
  0.461538  0.076923  0.076923      2.000000
 -0.461538  0.076923  0.076923      2.000000
 -0.384615  0.076923  0.076923      2.000000
 -0.307692  0.076923  0.076923      2.000000
 -0.230769  0.076923  0.076923      2.000000
 -0.153846  0.076923  0.076923      2.000000
 -0.076923  0.076923  0.076923      2.000000
  0.000000  0.153846  0.076923      2.000000
  0.076923  0.153846  0.076923      2.000000
  0.153846  0.153846  0.076923      2.000000
  0.230769  0.153846  0.076923      2.000000
  0.307692  0.153846  0.076923      2.000000
  0.384615  0.153846  0.076923      2.000000
  0.461538  0.153846  0.076923      2.000000
 -0.461538  0.153846  0.076923      2.000000
 -0.384615  0.153846  0.076923      2.000000
 -0.307692  0.153846  0.076923      2.000000
 -0.230769  0.153846  0.076923      2.000000
 -0.153846  0.153846  0.076923      2.000000
 -0.076923  0.153846  0.076923      2.000000
  0.000000  0.230769  0.076923      2.000000
  0.076923  0.230769  0.076923      2.000000
  0.153846  0.230769  0.076923      2.000000
  0.230769  0.230769  0.076923      2.000000
  0.307692  0.230769  0.076923      2.000000
  0.384615  0.230769  0.076923      2.000000
  0.461538  0.230769  0.076923      2.000000
 -0.461538  0.230769  0.076923      2.000000
 -0.384615  0.230769  0.076923      2.000000
 -0.307692  0.230769  0.076923      2.000000
 -0.230769  0.230769  0.076923      2.000000
 -0.153846  0.230769  0.076923      2.000000
 -0.076923  0.230769  0.076923      2.000000
  0.000000  0.307692  0.076923      2.000000
  0.076923  0.307692  0.076923      2.000000
  0.153846  0.307692  0.076923      2.000000
  0.230769  0.307692  0.076923      2.000000
  0.307692  0.307692  0.076923      2.000000
  0.384615  0.307692  0.076923      2.000000
  0.461538  0.307692  0.076923      2.000000
 -0.461538  0.307692  0.076923      2.000000
 -0.384615  0.307692  0.076923      2.000000
 -0.307692  0.307692  0.076923      2.000000
 -0.230769  0.307692  0.076923      2.000000
 -0.153846  0.307692  0.076923      2.000000
 -0.076923  0.307692  0.076923      2.000000
  0.000000  0.384615  0.076923      2.000000
  0.076923  0.384615  0.076923      2.000000
  0.153846  0.384615  0.076923      2.000000
  0.230769  0.384615  0.076923      2.000000
  0.307692  0.384615  0.076923      2.000000
  0.384615  0.384615  0.076923      2.000000
  0.461538  0.384615  0.076923      2.000000
 -0.461538  0.384615  0.076923      2.000000
 -0.384615  0.384615  0.076923      2.000000
 -0.307692  0.384615  0.076923      2.000000
 -0.230769  0.384615  0.076923      2.000000
 -0.153846  0.384615  0.076923      2.000000
 -0.076923  0.384615  0.076923      2.000000
  0.000000  0.461538  0.076923      2.000000
  0.076923  0.461538  0.076923      2.000000
  0.153846  0.461538  0.076923      2.000000
  0.230769  0.461538  0.076923      2.000000
  0.307692  0.461538  0.076923      2.000000
  0.384615  0.461538  0.076923      2.000000
  0.461538  0.461538  0.076923      2.000000
 -0.461538  0.461538  0.076923      2.000000
 -0.384615  0.461538  0.076923      2.000000
 -0.307692  0.461538  0.076923      2.000000
 -0.230769  0.461538  0.076923      2.000000
 -0.153846  0.461538  0.076923      2.000000
 -0.076923  0.461538  0.076923      2.000000
  0.000000 -0.461538  0.076923      2.000000
  0.076923 -0.461538  0.076923      2.000000
  0.153846 -0.461538  0.076923      2.000000
  0.230769 -0.461538  0.076923      2.000000
  0.307692 -0.461538  0.076923      2.000000
  0.384615 -0.461538  0.076923      2.000000
  0.461538 -0.461538  0.076923      2.000000
 -0.461538 -0.461538  0.076923      2.000000
 -0.384615 -0.461538  0.076923      2.000000
 -0.307692 -0.461538  0.076923      2.000000
 -0.230769 -0.461538  0.076923      2.000000
 -0.153846 -0.461538  0.076923      2.000000
 -0.076923 -0.461538  0.076923      2.000000
  0.000000 -0.384615  0.076923      2.000000
  0.076923 -0.384615  0.076923      2.000000
  0.153846 -0.384615  0.076923      2.000000
  0.230769 -0.384615  0.076923      2.000000
  0.307692 -0.384615  0.076923      2.000000
  0.384615 -0.384615  0.076923      2.000000
  0.461538 -0.384615  0.076923      2.000000
 -0.461538 -0.384615  0.076923      2.000000
 -0.384615 -0.384615  0.076923      2.000000
 -0.307692 -0.384615  0.076923      2.000000
 -0.230769 -0.384615  0.076923      2.000000
 -0.153846 -0.384615  0.076923      2.000000
 -0.076923 -0.384615  0.076923      2.000000
  0.000000 -0.307692  0.076923      2.000000
  0.076923 -0.307692  0.076923      2.000000
  0.153846 -0.307692  0.076923      2.000000
  0.230769 -0.307692  0.076923      2.000000
  0.307692 -0.307692  0.076923      2.000000
  0.384615 -0.307692  0.076923      2.000000
  0.461538 -0.307692  0.076923      2.000000
 -0.461538 -0.307692  0.076923      2.000000
 -0.384615 -0.307692  0.076923      2.000000
 -0.307692 -0.307692  0.076923      2.000000
 -0.230769 -0.307692  0.076923      2.000000
 -0.153846 -0.307692  0.076923      2.000000
 -0.076923 -0.307692  0.076923      2.000000
  0.000000 -0.230769  0.076923      2.000000
  0.076923 -0.230769  0.076923      2.000000
  0.153846 -0.230769  0.076923      2.000000
  0.230769 -0.230769  0.076923      2.000000
  0.307692 -0.230769  0.076923      2.000000
  0.384615 -0.230769  0.076923      2.000000
  0.461538 -0.230769  0.076923      2.000000
 -0.461538 -0.230769  0.076923      2.000000
 -0.384615 -0.230769  0.076923      2.000000
 -0.307692 -0.230769  0.076923      2.000000
 -0.230769 -0.230769  0.076923      2.000000
 -0.153846 -0.230769  0.076923      2.000000
 -0.076923 -0.230769  0.076923      2.000000
  0.000000 -0.153846  0.076923      2.000000
  0.076923 -0.153846  0.076923      2.000000
  0.153846 -0.153846  0.076923      2.000000
  0.230769 -0.153846  0.076923      2.000000
  0.307692 -0.153846  0.076923      2.000000
  0.384615 -0.153846  0.076923      2.000000
  0.461538 -0.153846  0.076923      2.000000
 -0.461538 -0.153846  0.076923      2.000000
 -0.384615 -0.153846  0.076923      2.000000
 -0.307692 -0.153846  0.076923      2.000000
 -0.230769 -0.153846  0.076923      2.000000
 -0.153846 -0.153846  0.076923      2.000000
 -0.076923 -0.153846  0.076923      2.000000
  0.000000 -0.076923  0.076923      2.000000
  0.076923 -0.076923  0.076923      2.000000
  0.153846 -0.076923  0.076923      2.000000
  0.230769 -0.076923  0.076923      2.000000
  0.307692 -0.076923  0.076923      2.000000
  0.384615 -0.076923  0.076923      2.000000
  0.461538 -0.076923  0.076923      2.000000
 -0.461538 -0.076923  0.076923      2.000000
 -0.384615 -0.076923  0.076923      2.000000
 -0.307692 -0.076923  0.076923      2.000000
 -0.230769 -0.076923  0.076923      2.000000
 -0.153846 -0.076923  0.076923      2.000000
 -0.076923 -0.076923  0.076923      2.000000
  0.000000  0.000000  0.153846      2.000000
  0.076923  0.000000  0.153846      2.000000
  0.153846  0.000000  0.153846      2.000000
  0.230769  0.000000  0.153846      2.000000
  0.307692  0.000000  0.153846      2.000000
  0.384615  0.000000  0.153846      2.000000
  0.461538  0.000000  0.153846      2.000000
 -0.461538  0.000000  0.153846      2.000000
 -0.384615  0.000000  0.153846      2.000000
 -0.307692  0.000000  0.153846      2.000000
 -0.230769  0.000000  0.153846      2.000000
 -0.153846  0.000000  0.153846      2.000000
 -0.076923  0.000000  0.153846      2.000000
  0.000000  0.076923  0.153846      2.000000
  0.076923  0.076923  0.153846      2.000000
  0.153846  0.076923  0.153846      2.000000
  0.230769  0.076923  0.153846      2.000000
  0.307692  0.076923  0.153846      2.000000
  0.384615  0.076923  0.153846      2.000000
  0.461538  0.076923  0.153846      2.000000
 -0.461538  0.076923  0.153846      2.000000
 -0.384615  0.076923  0.153846      2.000000
 -0.307692  0.076923  0.153846      2.000000
 -0.230769  0.076923  0.153846      2.000000
 -0.153846  0.076923  0.153846      2.000000
 -0.076923  0.076923  0.153846      2.000000
  0.000000  0.153846  0.153846      2.000000
  0.076923  0.153846  0.153846      2.000000
  0.153846  0.153846  0.153846      2.000000
  0.230769  0.153846  0.153846      2.000000
  0.307692  0.153846  0.153846      2.000000
  0.384615  0.153846  0.153846      2.000000
  0.461538  0.153846  0.153846      2.000000
 -0.461538  0.153846  0.153846      2.000000
 -0.384615  0.153846  0.153846      2.000000
 -0.307692  0.153846  0.153846      2.000000
 -0.230769  0.153846  0.153846      2.000000
 -0.153846  0.153846  0.153846      2.000000
 -0.076923  0.153846  0.153846      2.000000
  0.000000  0.230769  0.153846      2.000000
  0.076923  0.230769  0.153846      2.000000
  0.153846  0.230769  0.153846      2.000000
  0.230769  0.230769  0.153846      2.000000
  0.307692  0.230769  0.153846      2.000000
  0.384615  0.230769  0.153846      2.000000
  0.461538  0.230769  0.153846      2.000000
 -0.461538  0.230769  0.153846      2.000000
 -0.384615  0.230769  0.153846      2.000000
 -0.307692  0.230769  0.153846      2.000000
 -0.230769  0.230769  0.153846      2.000000
 -0.153846  0.230769  0.153846      2.000000
 -0.076923  0.230769  0.153846      2.000000
  0.000000  0.307692  0.153846      2.000000
  0.076923  0.307692  0.153846      2.000000
  0.153846  0.307692  0.153846      2.000000
  0.230769  0.307692  0.153846      2.000000
  0.307692  0.307692  0.153846      2.000000
  0.384615  0.307692  0.153846      2.000000
  0.461538  0.307692  0.153846      2.000000
 -0.461538  0.307692  0.153846      2.000000
 -0.384615  0.307692  0.153846      2.000000
 -0.307692  0.307692  0.153846      2.000000
 -0.230769  0.307692  0.153846      2.000000
 -0.153846  0.307692  0.153846      2.000000
 -0.076923  0.307692  0.153846      2.000000
  0.000000  0.384615  0.153846      2.000000
  0.076923  0.384615  0.153846      2.000000
  0.153846  0.384615  0.153846      2.000000
  0.230769  0.384615  0.153846      2.000000
  0.307692  0.384615  0.153846      2.000000
  0.384615  0.384615  0.153846      2.000000
  0.461538  0.384615  0.153846      2.000000
 -0.461538  0.384615  0.153846      2.000000
 -0.384615  0.384615  0.153846      2.000000
 -0.307692  0.384615  0.153846      2.000000
 -0.230769  0.384615  0.153846      2.000000
 -0.153846  0.384615  0.153846      2.000000
 -0.076923  0.384615  0.153846      2.000000
  0.000000  0.461538  0.153846      2.000000
  0.076923  0.461538  0.153846      2.000000
  0.153846  0.461538  0.153846      2.000000
  0.230769  0.461538  0.153846      2.000000
  0.307692  0.461538  0.153846      2.000000
  0.384615  0.461538  0.153846      2.000000
  0.461538  0.461538  0.153846      2.000000
 -0.461538  0.461538  0.153846      2.000000
 -0.384615  0.461538  0.153846      2.000000
 -0.307692  0.461538  0.153846      2.000000
 -0.230769  0.461538  0.153846      2.000000
 -0.153846  0.461538  0.153846      2.000000
 -0.076923  0.461538  0.153846      2.000000
  0.000000 -0.461538  0.153846      2.000000
  0.076923 -0.461538  0.153846      2.000000
  0.153846 -0.461538  0.153846      2.000000
  0.230769 -0.461538  0.153846      2.000000
  0.307692 -0.461538  0.153846      2.000000
  0.384615 -0.461538  0.153846      2.000000
  0.461538 -0.461538  0.153846      2.000000
 -0.461538 -0.461538  0.153846      2.000000
 -0.384615 -0.461538  0.153846      2.000000
 -0.307692 -0.461538  0.153846      2.000000
 -0.230769 -0.461538  0.153846      2.000000
 -0.153846 -0.461538  0.153846      2.000000
 -0.076923 -0.461538  0.153846      2.000000
  0.000000 -0.384615  0.153846      2.000000
  0.076923 -0.384615  0.153846      2.000000
  0.153846 -0.384615  0.153846      2.000000
  0.230769 -0.384615  0.153846      2.000000
  0.307692 -0.384615  0.153846      2.000000
  0.384615 -0.384615  0.153846      2.000000
  0.461538 -0.384615  0.153846      2.000000
 -0.461538 -0.384615  0.153846      2.000000
 -0.384615 -0.384615  0.153846      2.000000
 -0.307692 -0.384615  0.153846      2.000000
 -0.230769 -0.384615  0.153846      2.000000
 -0.153846 -0.384615  0.153846      2.000000
 -0.076923 -0.384615  0.153846      2.000000
  0.000000 -0.307692  0.153846      2.000000
  0.076923 -0.307692  0.153846      2.000000
  0.153846 -0.307692  0.153846      2.000000
  0.230769 -0.307692  0.153846      2.000000
  0.307692 -0.307692  0.153846      2.000000
  0.384615 -0.307692  0.153846      2.000000
  0.461538 -0.307692  0.153846      2.000000
 -0.461538 -0.307692  0.153846      2.000000
 -0.384615 -0.307692  0.153846      2.000000
 -0.307692 -0.307692  0.153846      2.000000
 -0.230769 -0.307692  0.153846      2.000000
 -0.153846 -0.307692  0.153846      2.000000
 -0.076923 -0.307692  0.153846      2.000000
  0.000000 -0.230769  0.153846      2.000000
  0.076923 -0.230769  0.153846      2.000000
  0.153846 -0.230769  0.153846      2.000000
  0.230769 -0.230769  0.153846      2.000000
  0.307692 -0.230769  0.153846      2.000000
  0.384615 -0.230769  0.153846      2.000000
  0.461538 -0.230769  0.153846      2.000000
 -0.461538 -0.230769  0.153846      2.000000
 -0.384615 -0.230769  0.153846      2.000000
 -0.307692 -0.230769  0.153846      2.000000
 -0.230769 -0.230769  0.153846      2.000000
 -0.153846 -0.230769  0.153846      2.000000
 -0.076923 -0.230769  0.153846      2.000000
  0.000000 -0.153846  0.153846      2.000000
  0.076923 -0.153846  0.153846      2.000000
  0.153846 -0.153846  0.153846      2.000000
  0.230769 -0.153846  0.153846      2.000000
  0.307692 -0.153846  0.153846      2.000000
  0.384615 -0.153846  0.153846      2.000000
  0.461538 -0.153846  0.153846      2.000000
 -0.461538 -0.153846  0.153846      2.000000
 -0.384615 -0.153846  0.153846      2.000000
 -0.307692 -0.153846  0.153846      2.000000
 -0.230769 -0.153846  0.153846      2.000000
 -0.153846 -0.153846  0.153846      2.000000
 -0.076923 -0.153846  0.153846      2.000000
  0.000000 -0.076923  0.153846      2.000000
  0.076923 -0.076923  0.153846      2.000000
  0.153846 -0.076923  0.153846      2.000000
  0.230769 -0.076923  0.153846      2.000000
  0.307692 -0.076923  0.153846      2.000000
  0.384615 -0.076923  0.153846      2.000000
  0.461538 -0.076923  0.153846      2.000000
 -0.461538 -0.076923  0.153846      2.000000
 -0.384615 -0.076923  0.153846      2.000000
 -0.307692 -0.076923  0.153846      2.000000
 -0.230769 -0.076923  0.153846      2.000000
 -0.153846 -0.076923  0.153846      2.000000
 -0.076923 -0.076923  0.153846      2.000000
  0.000000  0.000000  0.230769      2.000000
  0.076923  0.000000  0.230769      2.000000
  0.153846  0.000000  0.230769      2.000000
  0.230769  0.000000  0.230769      2.000000
  0.307692  0.000000  0.230769      2.000000
  0.384615  0.000000  0.230769      2.000000
  0.461538  0.000000  0.230769      2.000000
 -0.461538  0.000000  0.230769      2.000000
 -0.384615  0.000000  0.230769      2.000000
 -0.307692  0.000000  0.230769      2.000000
 -0.230769  0.000000  0.230769      2.000000
 -0.153846  0.000000  0.230769      2.000000
 -0.076923  0.000000  0.230769      2.000000
  0.000000  0.076923  0.230769      2.000000
  0.076923  0.076923  0.230769      2.000000
  0.153846  0.076923  0.230769      2.000000
  0.230769  0.076923  0.230769      2.000000
  0.307692  0.076923  0.230769      2.000000
  0.384615  0.076923  0.230769      2.000000
  0.461538  0.076923  0.230769      2.000000
 -0.461538  0.076923  0.230769      2.000000
 -0.384615  0.076923  0.230769      2.000000
 -0.307692  0.076923  0.230769      2.000000
 -0.230769  0.076923  0.230769      2.000000
 -0.153846  0.076923  0.230769      2.000000
 -0.076923  0.076923  0.230769      2.000000
  0.000000  0.153846  0.230769      2.000000
  0.076923  0.153846  0.230769      2.000000
  0.153846  0.153846  0.230769      2.000000
  0.230769  0.153846  0.230769      2.000000
  0.307692  0.153846  0.230769      2.000000
  0.384615  0.153846  0.230769      2.000000
  0.461538  0.153846  0.230769      2.000000
 -0.461538  0.153846  0.230769      2.000000
 -0.384615  0.153846  0.230769      2.000000
 -0.307692  0.153846  0.230769      2.000000
 -0.230769  0.153846  0.230769      2.000000
 -0.153846  0.153846  0.230769      2.000000
 -0.076923  0.153846  0.230769      2.000000
  0.000000  0.230769  0.230769      2.000000
  0.076923  0.230769  0.230769      2.000000
  0.153846  0.230769  0.230769      2.000000
  0.230769  0.230769  0.230769      2.000000
  0.307692  0.230769  0.230769      2.000000
  0.384615  0.230769  0.230769      2.000000
  0.461538  0.230769  0.230769      2.000000
 -0.461538  0.230769  0.230769      2.000000
 -0.384615  0.230769  0.230769      2.000000
 -0.307692  0.230769  0.230769      2.000000
 -0.230769  0.230769  0.230769      2.000000
 -0.153846  0.230769  0.230769      2.000000
 -0.076923  0.230769  0.230769      2.000000
  0.000000  0.307692  0.230769      2.000000
  0.076923  0.307692  0.230769      2.000000
  0.153846  0.307692  0.230769      2.000000
  0.230769  0.307692  0.230769      2.000000
  0.307692  0.307692  0.230769      2.000000
  0.384615  0.307692  0.230769      2.000000
  0.461538  0.307692  0.230769      2.000000
 -0.461538  0.307692  0.230769      2.000000
 -0.384615  0.307692  0.230769      2.000000
 -0.307692  0.307692  0.230769      2.000000
 -0.230769  0.307692  0.230769      2.000000
 -0.153846  0.307692  0.230769      2.000000
 -0.076923  0.307692  0.230769      2.000000
  0.000000  0.384615  0.230769      2.000000
  0.076923  0.384615  0.230769      2.000000
  0.153846  0.384615  0.230769      2.000000
  0.230769  0.384615  0.230769      2.000000
  0.307692  0.384615  0.230769      2.000000
  0.384615  0.384615  0.230769      2.000000
  0.461538  0.384615  0.230769      2.000000
 -0.461538  0.384615  0.230769      2.000000
 -0.384615  0.384615  0.230769      2.000000
 -0.307692  0.384615  0.230769      2.000000
 -0.230769  0.384615  0.230769      2.000000
 -0.153846  0.384615  0.230769      2.000000
 -0.076923  0.384615  0.230769      2.000000
  0.000000  0.461538  0.230769      2.000000
  0.076923  0.461538  0.230769      2.000000
  0.153846  0.461538  0.230769      2.000000
  0.230769  0.461538  0.230769      2.000000
  0.307692  0.461538  0.230769      2.000000
  0.384615  0.461538  0.230769      2.000000
  0.461538  0.461538  0.230769      2.000000
 -0.461538  0.461538  0.230769      2.000000
 -0.384615  0.461538  0.230769      2.000000
 -0.307692  0.461538  0.230769      2.000000
 -0.230769  0.461538  0.230769      2.000000
 -0.153846  0.461538  0.230769      2.000000
 -0.076923  0.461538  0.230769      2.000000
  0.000000 -0.461538  0.230769      2.000000
  0.076923 -0.461538  0.230769      2.000000
  0.153846 -0.461538  0.230769      2.000000
  0.230769 -0.461538  0.230769      2.000000
  0.307692 -0.461538  0.230769      2.000000
  0.384615 -0.461538  0.230769      2.000000
  0.461538 -0.461538  0.230769      2.000000
 -0.461538 -0.461538  0.230769      2.000000
 -0.384615 -0.461538  0.230769      2.000000
 -0.307692 -0.461538  0.230769      2.000000
 -0.230769 -0.461538  0.230769      2.000000
 -0.153846 -0.461538  0.230769      2.000000
 -0.076923 -0.461538  0.230769      2.000000
  0.000000 -0.384615  0.230769      2.000000
  0.076923 -0.384615  0.230769      2.000000
  0.153846 -0.384615  0.230769      2.000000
  0.230769 -0.384615  0.230769      2.000000
  0.307692 -0.384615  0.230769      2.000000
  0.384615 -0.384615  0.230769      2.000000
  0.461538 -0.384615  0.230769      2.000000
 -0.461538 -0.384615  0.230769      2.000000
 -0.384615 -0.384615  0.230769      2.000000
 -0.307692 -0.384615  0.230769      2.000000
 -0.230769 -0.384615  0.230769      2.000000
 -0.153846 -0.384615  0.230769      2.000000
 -0.076923 -0.384615  0.230769      2.000000
  0.000000 -0.307692  0.230769      2.000000
  0.076923 -0.307692  0.230769      2.000000
  0.153846 -0.307692  0.230769      2.000000
  0.230769 -0.307692  0.230769      2.000000
  0.307692 -0.307692  0.230769      2.000000
  0.384615 -0.307692  0.230769      2.000000
  0.461538 -0.307692  0.230769      2.000000
 -0.461538 -0.307692  0.230769      2.000000
 -0.384615 -0.307692  0.230769      2.000000
 -0.307692 -0.307692  0.230769      2.000000
 -0.230769 -0.307692  0.230769      2.000000
 -0.153846 -0.307692  0.230769      2.000000
 -0.076923 -0.307692  0.230769      2.000000
  0.000000 -0.230769  0.230769      2.000000
  0.076923 -0.230769  0.230769      2.000000
  0.153846 -0.230769  0.230769      2.000000
  0.230769 -0.230769  0.230769      2.000000
  0.307692 -0.230769  0.230769      2.000000
  0.384615 -0.230769  0.230769      2.000000
  0.461538 -0.230769  0.230769      2.000000
 -0.461538 -0.230769  0.230769      2.000000
 -0.384615 -0.230769  0.230769      2.000000
 -0.307692 -0.230769  0.230769      2.000000
 -0.230769 -0.230769  0.230769      2.000000
 -0.153846 -0.230769  0.230769      2.000000
 -0.076923 -0.230769  0.230769      2.000000
  0.000000 -0.153846  0.230769      2.000000
  0.076923 -0.153846  0.230769      2.000000
  0.153846 -0.153846  0.230769      2.000000
  0.230769 -0.153846  0.230769      2.000000
  0.307692 -0.153846  0.230769      2.000000
  0.384615 -0.153846  0.230769      2.000000
  0.461538 -0.153846  0.230769      2.000000
 -0.461538 -0.153846  0.230769      2.000000
 -0.384615 -0.153846  0.230769      2.000000
 -0.307692 -0.153846  0.230769      2.000000
 -0.230769 -0.153846  0.230769      2.000000
 -0.153846 -0.153846  0.230769      2.000000
 -0.076923 -0.153846  0.230769      2.000000
  0.000000 -0.076923  0.230769      2.000000
  0.076923 -0.076923  0.230769      2.000000
  0.153846 -0.076923  0.230769      2.000000
  0.230769 -0.076923  0.230769      2.000000
  0.307692 -0.076923  0.230769      2.000000
  0.384615 -0.076923  0.230769      2.000000
  0.461538 -0.076923  0.230769      2.000000
 -0.461538 -0.076923  0.230769      2.000000
 -0.384615 -0.076923  0.230769      2.000000
 -0.307692 -0.076923  0.230769      2.000000
 -0.230769 -0.076923  0.230769      2.000000
 -0.153846 -0.076923  0.230769      2.000000
 -0.076923 -0.076923  0.230769      2.000000
  0.000000  0.000000  0.307692      2.000000
  0.076923  0.000000  0.307692      2.000000
  0.153846  0.000000  0.307692      2.000000
  0.230769  0.000000  0.307692      2.000000
  0.307692  0.000000  0.307692      2.000000
  0.384615  0.000000  0.307692      2.000000
  0.461538  0.000000  0.307692      2.000000
 -0.461538  0.000000  0.307692      2.000000
 -0.384615  0.000000  0.307692      2.000000
 -0.307692  0.000000  0.307692      2.000000
 -0.230769  0.000000  0.307692      2.000000
 -0.153846  0.000000  0.307692      2.000000
 -0.076923  0.000000  0.307692      2.000000
  0.000000  0.076923  0.307692      2.000000
  0.076923  0.076923  0.307692      2.000000
  0.153846  0.076923  0.307692      2.000000
  0.230769  0.076923  0.307692      2.000000
  0.307692  0.076923  0.307692      2.000000
  0.384615  0.076923  0.307692      2.000000
  0.461538  0.076923  0.307692      2.000000
 -0.461538  0.076923  0.307692      2.000000
 -0.384615  0.076923  0.307692      2.000000
 -0.307692  0.076923  0.307692      2.000000
 -0.230769  0.076923  0.307692      2.000000
 -0.153846  0.076923  0.307692      2.000000
 -0.076923  0.076923  0.307692      2.000000
  0.000000  0.153846  0.307692      2.000000
  0.076923  0.153846  0.307692      2.000000
  0.153846  0.153846  0.307692      2.000000
  0.230769  0.153846  0.307692      2.000000
  0.307692  0.153846  0.307692      2.000000
  0.384615  0.153846  0.307692      2.000000
  0.461538  0.153846  0.307692      2.000000
 -0.461538  0.153846  0.307692      2.000000
 -0.384615  0.153846  0.307692      2.000000
 -0.307692  0.153846  0.307692      2.000000
 -0.230769  0.153846  0.307692      2.000000
 -0.153846  0.153846  0.307692      2.000000
 -0.076923  0.153846  0.307692      2.000000
  0.000000  0.230769  0.307692      2.000000
  0.076923  0.230769  0.307692      2.000000
  0.153846  0.230769  0.307692      2.000000
  0.230769  0.230769  0.307692      2.000000
  0.307692  0.230769  0.307692      2.000000
  0.384615  0.230769  0.307692      2.000000
  0.461538  0.230769  0.307692      2.000000
 -0.461538  0.230769  0.307692      2.000000
 -0.384615  0.230769  0.307692      2.000000
 -0.307692  0.230769  0.307692      2.000000
 -0.230769  0.230769  0.307692      2.000000
 -0.153846  0.230769  0.307692      2.000000
 -0.076923  0.230769  0.307692      2.000000
  0.000000  0.307692  0.307692      2.000000
  0.076923  0.307692  0.307692      2.000000
  0.153846  0.307692  0.307692      2.000000
  0.230769  0.307692  0.307692      2.000000
  0.307692  0.307692  0.307692      2.000000
  0.384615  0.307692  0.307692      2.000000
  0.461538  0.307692  0.307692      2.000000
 -0.461538  0.307692  0.307692      2.000000
 -0.384615  0.307692  0.307692      2.000000
 -0.307692  0.307692  0.307692      2.000000
 -0.230769  0.307692  0.307692      2.000000
 -0.153846  0.307692  0.307692      2.000000
 -0.076923  0.307692  0.307692      2.000000
  0.000000  0.384615  0.307692      2.000000
  0.076923  0.384615  0.307692      2.000000
  0.153846  0.384615  0.307692      2.000000
  0.230769  0.384615  0.307692      2.000000
  0.307692  0.384615  0.307692      2.000000
  0.384615  0.384615  0.307692      2.000000
  0.461538  0.384615  0.307692      2.000000
 -0.461538  0.384615  0.307692      2.000000
 -0.384615  0.384615  0.307692      2.000000
 -0.307692  0.384615  0.307692      2.000000
 -0.230769  0.384615  0.307692      2.000000
 -0.153846  0.384615  0.307692      2.000000
 -0.076923  0.384615  0.307692      2.000000
  0.000000  0.461538  0.307692      2.000000
  0.076923  0.461538  0.307692      2.000000
  0.153846  0.461538  0.307692      2.000000
  0.230769  0.461538  0.307692      2.000000
  0.307692  0.461538  0.307692      2.000000
  0.384615  0.461538  0.307692      2.000000
  0.461538  0.461538  0.307692      2.000000
 -0.461538  0.461538  0.307692      2.000000
 -0.384615  0.461538  0.307692      2.000000
 -0.307692  0.461538  0.307692      2.000000
 -0.230769  0.461538  0.307692      2.000000
 -0.153846  0.461538  0.307692      2.000000
 -0.076923  0.461538  0.307692      2.000000
  0.000000 -0.461538  0.307692      2.000000
  0.076923 -0.461538  0.307692      2.000000
  0.153846 -0.461538  0.307692      2.000000
  0.230769 -0.461538  0.307692      2.000000
  0.307692 -0.461538  0.307692      2.000000
  0.384615 -0.461538  0.307692      2.000000
  0.461538 -0.461538  0.307692      2.000000
 -0.461538 -0.461538  0.307692      2.000000
 -0.384615 -0.461538  0.307692      2.000000
 -0.307692 -0.461538  0.307692      2.000000
 -0.230769 -0.461538  0.307692      2.000000
 -0.153846 -0.461538  0.307692      2.000000
 -0.076923 -0.461538  0.307692      2.000000
  0.000000 -0.384615  0.307692      2.000000
  0.076923 -0.384615  0.307692      2.000000
  0.153846 -0.384615  0.307692      2.000000
  0.230769 -0.384615  0.307692      2.000000
  0.307692 -0.384615  0.307692      2.000000
  0.384615 -0.384615  0.307692      2.000000
  0.461538 -0.384615  0.307692      2.000000
 -0.461538 -0.384615  0.307692      2.000000
 -0.384615 -0.384615  0.307692      2.000000
 -0.307692 -0.384615  0.307692      2.000000
 -0.230769 -0.384615  0.307692      2.000000
 -0.153846 -0.384615  0.307692      2.000000
 -0.076923 -0.384615  0.307692      2.000000
  0.000000 -0.307692  0.307692      2.000000
  0.076923 -0.307692  0.307692      2.000000
  0.153846 -0.307692  0.307692      2.000000
  0.230769 -0.307692  0.307692      2.000000
  0.307692 -0.307692  0.307692      2.000000
  0.384615 -0.307692  0.307692      2.000000
  0.461538 -0.307692  0.307692      2.000000
 -0.461538 -0.307692  0.307692      2.000000
 -0.384615 -0.307692  0.307692      2.000000
 -0.307692 -0.307692  0.307692      2.000000
 -0.230769 -0.307692  0.307692      2.000000
 -0.153846 -0.307692  0.307692      2.000000
 -0.076923 -0.307692  0.307692      2.000000
  0.000000 -0.230769  0.307692      2.000000
  0.076923 -0.230769  0.307692      2.000000
  0.153846 -0.230769  0.307692      2.000000
  0.230769 -0.230769  0.307692      2.000000
  0.307692 -0.230769  0.307692      2.000000
  0.384615 -0.230769  0.307692      2.000000
  0.461538 -0.230769  0.307692      2.000000
 -0.461538 -0.230769  0.307692      2.000000
 -0.384615 -0.230769  0.307692      2.000000
 -0.307692 -0.230769  0.307692      2.000000
 -0.230769 -0.230769  0.307692      2.000000
 -0.153846 -0.230769  0.307692      2.000000
 -0.076923 -0.230769  0.307692      2.000000
  0.000000 -0.153846  0.307692      2.000000
  0.076923 -0.153846  0.307692      2.000000
  0.153846 -0.153846  0.307692      2.000000
  0.230769 -0.153846  0.307692      2.000000
  0.307692 -0.153846  0.307692      2.000000
  0.384615 -0.153846  0.307692      2.000000
  0.461538 -0.153846  0.307692      2.000000
 -0.461538 -0.153846  0.307692      2.000000
 -0.384615 -0.153846  0.307692      2.000000
 -0.307692 -0.153846  0.307692      2.000000
 -0.230769 -0.153846  0.307692      2.000000
 -0.153846 -0.153846  0.307692      2.000000
 -0.076923 -0.153846  0.307692      2.000000
  0.000000 -0.076923  0.307692      2.000000
  0.076923 -0.076923  0.307692      2.000000
  0.153846 -0.076923  0.307692      2.000000
  0.230769 -0.076923  0.307692      2.000000
  0.307692 -0.076923  0.307692      2.000000
  0.384615 -0.076923  0.307692      2.000000
  0.461538 -0.076923  0.307692      2.000000
 -0.461538 -0.076923  0.307692      2.000000
 -0.384615 -0.076923  0.307692      2.000000
 -0.307692 -0.076923  0.307692      2.000000
 -0.230769 -0.076923  0.307692      2.000000
 -0.153846 -0.076923  0.307692      2.000000
 -0.076923 -0.076923  0.307692      2.000000
  0.000000  0.000000  0.384615      2.000000
  0.076923  0.000000  0.384615      2.000000
  0.153846  0.000000  0.384615      2.000000
  0.230769  0.000000  0.384615      2.000000
  0.307692  0.000000  0.384615      2.000000
  0.384615  0.000000  0.384615      2.000000
  0.461538  0.000000  0.384615      2.000000
 -0.461538  0.000000  0.384615      2.000000
 -0.384615  0.000000  0.384615      2.000000
 -0.307692  0.000000  0.384615      2.000000
 -0.230769  0.000000  0.384615      2.000000
 -0.153846  0.000000  0.384615      2.000000
 -0.076923  0.000000  0.384615      2.000000
  0.000000  0.076923  0.384615      2.000000
  0.076923  0.076923  0.384615      2.000000
  0.153846  0.076923  0.384615      2.000000
  0.230769  0.076923  0.384615      2.000000
  0.307692  0.076923  0.384615      2.000000
  0.384615  0.076923  0.384615      2.000000
  0.461538  0.076923  0.384615      2.000000
 -0.461538  0.076923  0.384615      2.000000
 -0.384615  0.076923  0.384615      2.000000
 -0.307692  0.076923  0.384615      2.000000
 -0.230769  0.076923  0.384615      2.000000
 -0.153846  0.076923  0.384615      2.000000
 -0.076923  0.076923  0.384615      2.000000
  0.000000  0.153846  0.384615      2.000000
  0.076923  0.153846  0.384615      2.000000
  0.153846  0.153846  0.384615      2.000000
  0.230769  0.153846  0.384615      2.000000
  0.307692  0.153846  0.384615      2.000000
  0.384615  0.153846  0.384615      2.000000
  0.461538  0.153846  0.384615      2.000000
 -0.461538  0.153846  0.384615      2.000000
 -0.384615  0.153846  0.384615      2.000000
 -0.307692  0.153846  0.384615      2.000000
 -0.230769  0.153846  0.384615      2.000000
 -0.153846  0.153846  0.384615      2.000000
 -0.076923  0.153846  0.384615      2.000000
  0.000000  0.230769  0.384615      2.000000
  0.076923  0.230769  0.384615      2.000000
  0.153846  0.230769  0.384615      2.000000
  0.230769  0.230769  0.384615      2.000000
  0.307692  0.230769  0.384615      2.000000
  0.384615  0.230769  0.384615      2.000000
  0.461538  0.230769  0.384615      2.000000
 -0.461538  0.230769  0.384615      2.000000
 -0.384615  0.230769  0.384615      2.000000
 -0.307692  0.230769  0.384615      2.000000
 -0.230769  0.230769  0.384615      2.000000
 -0.153846  0.230769  0.384615      2.000000
 -0.076923  0.230769  0.384615      2.000000
  0.000000  0.307692  0.384615      2.000000
  0.076923  0.307692  0.384615      2.000000
  0.153846  0.307692  0.384615      2.000000
  0.230769  0.307692  0.384615      2.000000
  0.307692  0.307692  0.384615      2.000000
  0.384615  0.307692  0.384615      2.000000
  0.461538  0.307692  0.384615      2.000000
 -0.461538  0.307692  0.384615      2.000000
 -0.384615  0.307692  0.384615      2.000000
 -0.307692  0.307692  0.384615      2.000000
 -0.230769  0.307692  0.384615      2.000000
 -0.153846  0.307692  0.384615      2.000000
 -0.076923  0.307692  0.384615      2.000000
  0.000000  0.384615  0.384615      2.000000
  0.076923  0.384615  0.384615      2.000000
  0.153846  0.384615  0.384615      2.000000
  0.230769  0.384615  0.384615      2.000000
  0.307692  0.384615  0.384615      2.000000
  0.384615  0.384615  0.384615      2.000000
  0.461538  0.384615  0.384615      2.000000
 -0.461538  0.384615  0.384615      2.000000
 -0.384615  0.384615  0.384615      2.000000
 -0.307692  0.384615  0.384615      2.000000
 -0.230769  0.384615  0.384615      2.000000
 -0.153846  0.384615  0.384615      2.000000
 -0.076923  0.384615  0.384615      2.000000
  0.000000  0.461538  0.384615      2.000000
  0.076923  0.461538  0.384615      2.000000
  0.153846  0.461538  0.384615      2.000000
  0.230769  0.461538  0.384615      2.000000
  0.307692  0.461538  0.384615      2.000000
  0.384615  0.461538  0.384615      2.000000
  0.461538  0.461538  0.384615      2.000000
 -0.461538  0.461538  0.384615      2.000000
 -0.384615  0.461538  0.384615      2.000000
 -0.307692  0.461538  0.384615      2.000000
 -0.230769  0.461538  0.384615      2.000000
 -0.153846  0.461538  0.384615      2.000000
 -0.076923  0.461538  0.384615      2.000000
  0.000000 -0.461538  0.384615      2.000000
  0.076923 -0.461538  0.384615      2.000000
  0.153846 -0.461538  0.384615      2.000000
  0.230769 -0.461538  0.384615      2.000000
  0.307692 -0.461538  0.384615      2.000000
  0.384615 -0.461538  0.384615      2.000000
  0.461538 -0.461538  0.384615      2.000000
 -0.461538 -0.461538  0.384615      2.000000
 -0.384615 -0.461538  0.384615      2.000000
 -0.307692 -0.461538  0.384615      2.000000
 -0.230769 -0.461538  0.384615      2.000000
 -0.153846 -0.461538  0.384615      2.000000
 -0.076923 -0.461538  0.384615      2.000000
  0.000000 -0.384615  0.384615      2.000000
  0.076923 -0.384615  0.384615      2.000000
  0.153846 -0.384615  0.384615      2.000000
  0.230769 -0.384615  0.384615      2.000000
  0.307692 -0.384615  0.384615      2.000000
  0.384615 -0.384615  0.384615      2.000000
  0.461538 -0.384615  0.384615      2.000000
 -0.461538 -0.384615  0.384615      2.000000
 -0.384615 -0.384615  0.384615      2.000000
 -0.307692 -0.384615  0.384615      2.000000
 -0.230769 -0.384615  0.384615      2.000000
 -0.153846 -0.384615  0.384615      2.000000
 -0.076923 -0.384615  0.384615      2.000000
  0.000000 -0.307692  0.384615      2.000000
  0.076923 -0.307692  0.384615      2.000000
  0.153846 -0.307692  0.384615      2.000000
  0.230769 -0.307692  0.384615      2.000000
  0.307692 -0.307692  0.384615      2.000000
  0.384615 -0.307692  0.384615      2.000000
  0.461538 -0.307692  0.384615      2.000000
 -0.461538 -0.307692  0.384615      2.000000
 -0.384615 -0.307692  0.384615      2.000000
 -0.307692 -0.307692  0.384615      2.000000
 -0.230769 -0.307692  0.384615      2.000000
 -0.153846 -0.307692  0.384615      2.000000
 -0.076923 -0.307692  0.384615      2.000000
  0.000000 -0.230769  0.384615      2.000000
  0.076923 -0.230769  0.384615      2.000000
  0.153846 -0.230769  0.384615      2.000000
  0.230769 -0.230769  0.384615      2.000000
  0.307692 -0.230769  0.384615      2.000000
  0.384615 -0.230769  0.384615      2.000000
  0.461538 -0.230769  0.384615      2.000000
 -0.461538 -0.230769  0.384615      2.000000
 -0.384615 -0.230769  0.384615      2.000000
 -0.307692 -0.230769  0.384615      2.000000
 -0.230769 -0.230769  0.384615      2.000000
 -0.153846 -0.230769  0.384615      2.000000
 -0.076923 -0.230769  0.384615      2.000000
  0.000000 -0.153846  0.384615      2.000000
  0.076923 -0.153846  0.384615      2.000000
  0.153846 -0.153846  0.384615      2.000000
  0.230769 -0.153846  0.384615      2.000000
  0.307692 -0.153846  0.384615      2.000000
  0.384615 -0.153846  0.384615      2.000000
  0.461538 -0.153846  0.384615      2.000000
 -0.461538 -0.153846  0.384615      2.000000
 -0.384615 -0.153846  0.384615      2.000000
 -0.307692 -0.153846  0.384615      2.000000
 -0.230769 -0.153846  0.384615      2.000000
 -0.153846 -0.153846  0.384615      2.000000
 -0.076923 -0.153846  0.384615      2.000000
  0.000000 -0.076923  0.384615      2.000000
  0.076923 -0.076923  0.384615      2.000000
  0.153846 -0.076923  0.384615      2.000000
  0.230769 -0.076923  0.384615      2.000000
  0.307692 -0.076923  0.384615      2.000000
  0.384615 -0.076923  0.384615      2.000000
  0.461538 -0.076923  0.384615      2.000000
 -0.461538 -0.076923  0.384615      2.000000
 -0.384615 -0.076923  0.384615      2.000000
 -0.307692 -0.076923  0.384615      2.000000
 -0.230769 -0.076923  0.384615      2.000000
 -0.153846 -0.076923  0.384615      2.000000
 -0.076923 -0.076923  0.384615      2.000000
  0.000000  0.000000  0.461538      2.000000
  0.076923  0.000000  0.461538      2.000000
  0.153846  0.000000  0.461538      2.000000
  0.230769  0.000000  0.461538      2.000000
  0.307692  0.000000  0.461538      2.000000
  0.384615  0.000000  0.461538      2.000000
  0.461538  0.000000  0.461538      2.000000
 -0.461538  0.000000  0.461538      2.000000
 -0.384615  0.000000  0.461538      2.000000
 -0.307692  0.000000  0.461538      2.000000
 -0.230769  0.000000  0.461538      2.000000
 -0.153846  0.000000  0.461538      2.000000
 -0.076923  0.000000  0.461538      2.000000
  0.000000  0.076923  0.461538      2.000000
  0.076923  0.076923  0.461538      2.000000
  0.153846  0.076923  0.461538      2.000000
  0.230769  0.076923  0.461538      2.000000
  0.307692  0.076923  0.461538      2.000000
  0.384615  0.076923  0.461538      2.000000
  0.461538  0.076923  0.461538      2.000000
 -0.461538  0.076923  0.461538      2.000000
 -0.384615  0.076923  0.461538      2.000000
 -0.307692  0.076923  0.461538      2.000000
 -0.230769  0.076923  0.461538      2.000000
 -0.153846  0.076923  0.461538      2.000000
 -0.076923  0.076923  0.461538      2.000000
  0.000000  0.153846  0.461538      2.000000
  0.076923  0.153846  0.461538      2.000000
  0.153846  0.153846  0.461538      2.000000
  0.230769  0.153846  0.461538      2.000000
  0.307692  0.153846  0.461538      2.000000
  0.384615  0.153846  0.461538      2.000000
  0.461538  0.153846  0.461538      2.000000
 -0.461538  0.153846  0.461538      2.000000
 -0.384615  0.153846  0.461538      2.000000
 -0.307692  0.153846  0.461538      2.000000
 -0.230769  0.153846  0.461538      2.000000
 -0.153846  0.153846  0.461538      2.000000
 -0.076923  0.153846  0.461538      2.000000
  0.000000  0.230769  0.461538      2.000000
  0.076923  0.230769  0.461538      2.000000
  0.153846  0.230769  0.461538      2.000000
  0.230769  0.230769  0.461538      2.000000
  0.307692  0.230769  0.461538      2.000000
  0.384615  0.230769  0.461538      2.000000
  0.461538  0.230769  0.461538      2.000000
 -0.461538  0.230769  0.461538      2.000000
 -0.384615  0.230769  0.461538      2.000000
 -0.307692  0.230769  0.461538      2.000000
 -0.230769  0.230769  0.461538      2.000000
 -0.153846  0.230769  0.461538      2.000000
 -0.076923  0.230769  0.461538      2.000000
  0.000000  0.307692  0.461538      2.000000
  0.076923  0.307692  0.461538      2.000000
  0.153846  0.307692  0.461538      2.000000
  0.230769  0.307692  0.461538      2.000000
  0.307692  0.307692  0.461538      2.000000
  0.384615  0.307692  0.461538      2.000000
  0.461538  0.307692  0.461538      2.000000
 -0.461538  0.307692  0.461538      2.000000
 -0.384615  0.307692  0.461538      2.000000
 -0.307692  0.307692  0.461538      2.000000
 -0.230769  0.307692  0.461538      2.000000
 -0.153846  0.307692  0.461538      2.000000
 -0.076923  0.307692  0.461538      2.000000
  0.000000  0.384615  0.461538      2.000000
  0.076923  0.384615  0.461538      2.000000
  0.153846  0.384615  0.461538      2.000000
  0.230769  0.384615  0.461538      2.000000
  0.307692  0.384615  0.461538      2.000000
  0.384615  0.384615  0.461538      2.000000
  0.461538  0.384615  0.461538      2.000000
 -0.461538  0.384615  0.461538      2.000000
 -0.384615  0.384615  0.461538      2.000000
 -0.307692  0.384615  0.461538      2.000000
 -0.230769  0.384615  0.461538      2.000000
 -0.153846  0.384615  0.461538      2.000000
 -0.076923  0.384615  0.461538      2.000000
  0.000000  0.461538  0.461538      2.000000
  0.076923  0.461538  0.461538      2.000000
  0.153846  0.461538  0.461538      2.000000
  0.230769  0.461538  0.461538      2.000000
  0.307692  0.461538  0.461538      2.000000
  0.384615  0.461538  0.461538      2.000000
  0.461538  0.461538  0.461538      2.000000
 -0.461538  0.461538  0.461538      2.000000
 -0.384615  0.461538  0.461538      2.000000
 -0.307692  0.461538  0.461538      2.000000
 -0.230769  0.461538  0.461538      2.000000
 -0.153846  0.461538  0.461538      2.000000
 -0.076923  0.461538  0.461538      2.000000
  0.000000 -0.461538  0.461538      2.000000
  0.076923 -0.461538  0.461538      2.000000
  0.153846 -0.461538  0.461538      2.000000
  0.230769 -0.461538  0.461538      2.000000
  0.307692 -0.461538  0.461538      2.000000
  0.384615 -0.461538  0.461538      2.000000
  0.461538 -0.461538  0.461538      2.000000
 -0.461538 -0.461538  0.461538      2.000000
 -0.384615 -0.461538  0.461538      2.000000
 -0.307692 -0.461538  0.461538      2.000000
 -0.230769 -0.461538  0.461538      2.000000
 -0.153846 -0.461538  0.461538      2.000000
 -0.076923 -0.461538  0.461538      2.000000
  0.000000 -0.384615  0.461538      2.000000
  0.076923 -0.384615  0.461538      2.000000
  0.153846 -0.384615  0.461538      2.000000
  0.230769 -0.384615  0.461538      2.000000
  0.307692 -0.384615  0.461538      2.000000
  0.384615 -0.384615  0.461538      2.000000
  0.461538 -0.384615  0.461538      2.000000
 -0.461538 -0.384615  0.461538      2.000000
 -0.384615 -0.384615  0.461538      2.000000
 -0.307692 -0.384615  0.461538      2.000000
 -0.230769 -0.384615  0.461538      2.000000
 -0.153846 -0.384615  0.461538      2.000000
 -0.076923 -0.384615  0.461538      2.000000
  0.000000 -0.307692  0.461538      2.000000
  0.076923 -0.307692  0.461538      2.000000
  0.153846 -0.307692  0.461538      2.000000
  0.230769 -0.307692  0.461538      2.000000
  0.307692 -0.307692  0.461538      2.000000
  0.384615 -0.307692  0.461538      2.000000
  0.461538 -0.307692  0.461538      2.000000
 -0.461538 -0.307692  0.461538      2.000000
 -0.384615 -0.307692  0.461538      2.000000
 -0.307692 -0.307692  0.461538      2.000000
 -0.230769 -0.307692  0.461538      2.000000
 -0.153846 -0.307692  0.461538      2.000000
 -0.076923 -0.307692  0.461538      2.000000
  0.000000 -0.230769  0.461538      2.000000
  0.076923 -0.230769  0.461538      2.000000
  0.153846 -0.230769  0.461538      2.000000
  0.230769 -0.230769  0.461538      2.000000
  0.307692 -0.230769  0.461538      2.000000
  0.384615 -0.230769  0.461538      2.000000
  0.461538 -0.230769  0.461538      2.000000
 -0.461538 -0.230769  0.461538      2.000000
 -0.384615 -0.230769  0.461538      2.000000
 -0.307692 -0.230769  0.461538      2.000000
 -0.230769 -0.230769  0.461538      2.000000
 -0.153846 -0.230769  0.461538      2.000000
 -0.076923 -0.230769  0.461538      2.000000
  0.000000 -0.153846  0.461538      2.000000
  0.076923 -0.153846  0.461538      2.000000
  0.153846 -0.153846  0.461538      2.000000
  0.230769 -0.153846  0.461538      2.000000
  0.307692 -0.153846  0.461538      2.000000
  0.384615 -0.153846  0.461538      2.000000
  0.461538 -0.153846  0.461538      2.000000
 -0.461538 -0.153846  0.461538      2.000000
 -0.384615 -0.153846  0.461538      2.000000
 -0.307692 -0.153846  0.461538      2.000000
 -0.230769 -0.153846  0.461538      2.000000
 -0.153846 -0.153846  0.461538      2.000000
 -0.076923 -0.153846  0.461538      2.000000
  0.000000 -0.076923  0.461538      2.000000
  0.076923 -0.076923  0.461538      2.000000
  0.153846 -0.076923  0.461538      2.000000
  0.230769 -0.076923  0.461538      2.000000
  0.307692 -0.076923  0.461538      2.000000
  0.384615 -0.076923  0.461538      2.000000
  0.461538 -0.076923  0.461538      2.000000
 -0.461538 -0.076923  0.461538      2.000000
 -0.384615 -0.076923  0.461538      2.000000
 -0.307692 -0.076923  0.461538      2.000000
 -0.230769 -0.076923  0.461538      2.000000
 -0.153846 -0.076923  0.461538      2.000000
 -0.076923 -0.076923  0.461538      2.000000
 
 Following cartesian coordinates:
            Coordinates               Weight
  0.000000  0.000000  0.000000      1.000000
 -0.018838  0.018838  0.018838      2.000000
 -0.037676  0.037676  0.037676      2.000000
 -0.056514  0.056514  0.056514      2.000000
 -0.075351  0.075351  0.075351      2.000000
 -0.094189  0.094189  0.094189      2.000000
 -0.113027  0.113027  0.113027      2.000000
  0.018838 -0.018838  0.018838      2.000000
  0.000000  0.000000  0.037676      2.000000
 -0.018838  0.018838  0.056514      2.000000
 -0.037676  0.037676  0.075351      2.000000
 -0.056514  0.056514  0.094189      2.000000
 -0.075351  0.075351  0.113027      2.000000
 -0.094189  0.094189  0.131865      2.000000
  0.131865 -0.131865 -0.094189      2.000000
  0.113027 -0.113027 -0.075351      2.000000
  0.094189 -0.094189 -0.056514      2.000000
  0.075351 -0.075351 -0.037676      2.000000
  0.056514 -0.056514 -0.018838      2.000000
  0.037676 -0.037676  0.000000      2.000000
  0.037676 -0.037676  0.037676      2.000000
  0.018838 -0.018838  0.056514      2.000000
  0.000000  0.000000  0.075351      2.000000
 -0.018838  0.018838  0.094189      2.000000
 -0.037676  0.037676  0.113027      2.000000
 -0.056514  0.056514  0.131865      2.000000
 -0.075351  0.075351  0.150703      2.000000
  0.150703 -0.150703 -0.075351      2.000000
  0.131865 -0.131865 -0.056514      2.000000
  0.113027 -0.113027 -0.037676      2.000000
  0.094189 -0.094189 -0.018838      2.000000
  0.075351 -0.075351  0.000000      2.000000
  0.056514 -0.056514  0.018838      2.000000
  0.056514 -0.056514  0.056514      2.000000
  0.037676 -0.037676  0.075351      2.000000
  0.018838 -0.018838  0.094189      2.000000
  0.000000  0.000000  0.113027      2.000000
 -0.018838  0.018838  0.131865      2.000000
 -0.037676  0.037676  0.150703      2.000000
 -0.056514  0.056514  0.169541      2.000000
  0.169541 -0.169541 -0.056514      2.000000
  0.150703 -0.150703 -0.037676      2.000000
  0.131865 -0.131865 -0.018838      2.000000
  0.113027 -0.113027  0.000000      2.000000
  0.094189 -0.094189  0.018838      2.000000
  0.075351 -0.075351  0.037676      2.000000
  0.075351 -0.075351  0.075351      2.000000
  0.056514 -0.056514  0.094189      2.000000
  0.037676 -0.037676  0.113027      2.000000
  0.018838 -0.018838  0.131865      2.000000
  0.000000  0.000000  0.150703      2.000000
 -0.018838  0.018838  0.169541      2.000000
 -0.037676  0.037676  0.188379      2.000000
  0.188379 -0.188379 -0.037676      2.000000
  0.169541 -0.169541 -0.018838      2.000000
  0.150703 -0.150703  0.000000      2.000000
  0.131865 -0.131865  0.018838      2.000000
  0.113027 -0.113027  0.037676      2.000000
  0.094189 -0.094189  0.056514      2.000000
  0.094189 -0.094189  0.094189      2.000000
  0.075351 -0.075351  0.113027      2.000000
  0.056514 -0.056514  0.131865      2.000000
  0.037676 -0.037676  0.150703      2.000000
  0.018838 -0.018838  0.169541      2.000000
  0.000000  0.000000  0.188379      2.000000
 -0.018838  0.018838  0.207217      2.000000
  0.207217 -0.207217 -0.018838      2.000000
  0.188379 -0.188379  0.000000      2.000000
  0.169541 -0.169541  0.018838      2.000000
  0.150703 -0.150703  0.037676      2.000000
  0.131865 -0.131865  0.056514      2.000000
  0.113027 -0.113027  0.075351      2.000000
  0.113027 -0.113027  0.113027      2.000000
  0.094189 -0.094189  0.131865      2.000000
  0.075351 -0.075351  0.150703      2.000000
  0.056514 -0.056514  0.169541      2.000000
  0.037676 -0.037676  0.188379      2.000000
  0.018838 -0.018838  0.207217      2.000000
  0.000000  0.000000  0.226054      2.000000
  0.226054 -0.226054  0.000000      2.000000
  0.207217 -0.207217  0.018838      2.000000
  0.188379 -0.188379  0.037676      2.000000
  0.169541 -0.169541  0.056514      2.000000
  0.150703 -0.150703  0.075351      2.000000
  0.131865 -0.131865  0.094189      2.000000
  0.018838  0.018838 -0.018838      2.000000
  0.000000  0.037676  0.000000      2.000000
 -0.018838  0.056514  0.018838      2.000000
 -0.037676  0.075351  0.037676      2.000000
 -0.056514  0.094189  0.056514      2.000000
 -0.075351  0.113027  0.075351      2.000000
 -0.094189  0.131865  0.094189      2.000000
  0.131865 -0.094189 -0.131865      2.000000
  0.113027 -0.075351 -0.113027      2.000000
  0.094189 -0.056514 -0.094189      2.000000
  0.075351 -0.037676 -0.075351      2.000000
  0.056514 -0.018838 -0.056514      2.000000
  0.037676  0.000000 -0.037676      2.000000
  0.037676  0.000000  0.000000      2.000000
  0.018838  0.018838  0.018838      2.000000
 -0.000000  0.037676  0.037676      2.000000
 -0.018838  0.056514  0.056514      2.000000
 -0.037676  0.075351  0.075351      2.000000
 -0.056514  0.094189  0.094189      2.000000
 -0.075351  0.113027  0.113027      2.000000
  0.150703 -0.113027 -0.113027      2.000000
  0.131865 -0.094189 -0.094189      2.000000
  0.113027 -0.075351 -0.075351      2.000000
  0.094189 -0.056514 -0.056514      2.000000
  0.075351 -0.037676 -0.037676      2.000000
  0.056514 -0.018838 -0.018838      2.000000
  0.056514 -0.018838  0.018838      2.000000
  0.037676 -0.000000  0.037676      2.000000
  0.018838  0.018838  0.056514      2.000000
  0.000000  0.037676  0.075351      2.000000
 -0.018838  0.056514  0.094189      2.000000
 -0.037676  0.075351  0.113027      2.000000
 -0.056514  0.094189  0.131865      2.000000
  0.169541 -0.131865 -0.094189      2.000000
  0.150703 -0.113027 -0.075351      2.000000
  0.131865 -0.094189 -0.056514      2.000000
  0.113027 -0.075351 -0.037676      2.000000
  0.094189 -0.056514 -0.018838      2.000000
  0.075351 -0.037676  0.000000      2.000000
  0.075351 -0.037676  0.037676      2.000000
  0.056514 -0.018838  0.056514      2.000000
  0.037676  0.000000  0.075351      2.000000
  0.018838  0.018838  0.094189      2.000000
 -0.000000  0.037676  0.113027      2.000000
 -0.018838  0.056514  0.131865      2.000000
 -0.037676  0.075351  0.150703      2.000000
  0.188379 -0.150703 -0.075351      2.000000
  0.169541 -0.131865 -0.056514      2.000000
  0.150703 -0.113027 -0.037676      2.000000
  0.131865 -0.094189 -0.018838      2.000000
  0.113027 -0.075351  0.000000      2.000000
  0.094189 -0.056514  0.018838      2.000000
  0.094189 -0.056514  0.056514      2.000000
  0.075351 -0.037676  0.075351      2.000000
  0.056514 -0.018838  0.094189      2.000000
  0.037676 -0.000000  0.113027      2.000000
  0.018838  0.018838  0.131865      2.000000
 -0.000000  0.037676  0.150703      2.000000
 -0.018838  0.056514  0.169541      2.000000
  0.207217 -0.169541 -0.056514      2.000000
  0.188379 -0.150703 -0.037676      2.000000
  0.169541 -0.131865 -0.018838      2.000000
  0.150703 -0.113027  0.000000      2.000000
  0.131865 -0.094189  0.018838      2.000000
  0.113027 -0.075351  0.037676      2.000000
  0.113027 -0.075351  0.075351      2.000000
  0.094189 -0.056514  0.094189      2.000000
  0.075351 -0.037676  0.113027      2.000000
  0.056514 -0.018838  0.131865      2.000000
  0.037676 -0.000000  0.150703      2.000000
  0.018838  0.018838  0.169541      2.000000
 -0.000000  0.037676  0.188379      2.000000
  0.226054 -0.188379 -0.037676      2.000000
  0.207217 -0.169541 -0.018838      2.000000
  0.188379 -0.150703  0.000000      2.000000
  0.169541 -0.131865  0.018838      2.000000
  0.150703 -0.113027  0.037676      2.000000
  0.131865 -0.094189  0.056514      2.000000
  0.131865 -0.094189  0.094189      2.000000
  0.113027 -0.075351  0.113027      2.000000
  0.094189 -0.056514  0.131865      2.000000
  0.075351 -0.037676  0.150703      2.000000
  0.056514 -0.018838  0.169541      2.000000
  0.037676 -0.000000  0.188379      2.000000
  0.018838  0.018838  0.207217      2.000000
  0.244892 -0.207217 -0.018838      2.000000
  0.226054 -0.188379  0.000000      2.000000
  0.207217 -0.169541  0.018838      2.000000
  0.188379 -0.150703  0.037676      2.000000
  0.169541 -0.131865  0.056514      2.000000
  0.150703 -0.113027  0.075351      2.000000
 -0.094189  0.131865 -0.131865      2.000000
 -0.113027  0.150703 -0.113027      2.000000
 -0.131865  0.169541 -0.094189      2.000000
 -0.150703  0.188379 -0.075351      2.000000
 -0.169541  0.207217 -0.056514      2.000000
 -0.188379  0.226054 -0.037676      2.000000
 -0.207217  0.244892 -0.018838      2.000000
  0.018838  0.018838 -0.244892      2.000000
 -0.000000  0.037676 -0.226054      2.000000
 -0.018838  0.056514 -0.207217      2.000000
 -0.037676  0.075351 -0.188379      2.000000
 -0.056514  0.094189 -0.169541      2.000000
 -0.075351  0.113027 -0.150703      2.000000
 -0.075351  0.113027 -0.113027      2.000000
 -0.094189  0.131865 -0.094189      2.000000
 -0.113027  0.150703 -0.075351      2.000000
 -0.131865  0.169541 -0.056514      2.000000
 -0.150703  0.188379 -0.037676      2.000000
 -0.169541  0.207217 -0.018838      2.000000
 -0.188379  0.226054  0.000000      2.000000
  0.037676 -0.000000 -0.226054      2.000000
  0.018838  0.018838 -0.207217      2.000000
 -0.000000  0.037676 -0.188379      2.000000
 -0.018838  0.056514 -0.169541      2.000000
 -0.037676  0.075351 -0.150703      2.000000
 -0.056514  0.094189 -0.131865      2.000000
 -0.056514  0.094189 -0.094189      2.000000
 -0.075351  0.113027 -0.075351      2.000000
 -0.094189  0.131865 -0.056514      2.000000
 -0.113027  0.150703 -0.037676      2.000000
 -0.131865  0.169541 -0.018838      2.000000
 -0.150703  0.188379  0.000000      2.000000
 -0.169541  0.207217  0.018838      2.000000
  0.056514 -0.018838 -0.207217      2.000000
  0.037676 -0.000000 -0.188379      2.000000
  0.018838  0.018838 -0.169541      2.000000
  0.000000  0.037676 -0.150703      2.000000
 -0.018838  0.056514 -0.131865      2.000000
 -0.037676  0.075351 -0.113027      2.000000
 -0.037676  0.075351 -0.075351      2.000000
 -0.056514  0.094189 -0.056514      2.000000
 -0.075351  0.113027 -0.037676      2.000000
 -0.094189  0.131865 -0.018838      2.000000
 -0.113027  0.150703  0.000000      2.000000
 -0.131865  0.169541  0.018838      2.000000
 -0.150703  0.188379  0.037676      2.000000
  0.075351 -0.037676 -0.188379      2.000000
  0.056514 -0.018838 -0.169541      2.000000
  0.037676  0.000000 -0.150703      2.000000
  0.018838  0.018838 -0.131865      2.000000
  0.000000  0.037676 -0.113027      2.000000
 -0.018838  0.056514 -0.094189      2.000000
 -0.018838  0.056514 -0.056514      2.000000
 -0.037676  0.075351 -0.037676      2.000000
 -0.056514  0.094189 -0.018838      2.000000
 -0.075351  0.113027  0.000000      2.000000
 -0.094189  0.131865  0.018838      2.000000
 -0.113027  0.150703  0.037676      2.000000
 -0.131865  0.169541  0.056514      2.000000
  0.094189 -0.056514 -0.169541      2.000000
  0.075351 -0.037676 -0.150703      2.000000
  0.056514 -0.018838 -0.131865      2.000000
  0.037676  0.000000 -0.113027      2.000000
  0.018838  0.018838 -0.094189      2.000000
 -0.000000  0.037676 -0.075351      2.000000
  0.000000  0.037676 -0.037676      2.000000
 -0.018838  0.056514 -0.018838      2.000000
 -0.037676  0.075351  0.000000      2.000000
 -0.056514  0.094189  0.018838      2.000000
 -0.075351  0.113027  0.037676      2.000000
 -0.094189  0.131865  0.056514      2.000000
 -0.113027  0.150703  0.075351      2.000000
  0.113027 -0.075351 -0.150703      2.000000
  0.094189 -0.056514 -0.131865      2.000000
  0.075351 -0.037676 -0.113027      2.000000
  0.056514 -0.018838 -0.094189      2.000000
  0.037676 -0.000000 -0.075351      2.000000
  0.018838  0.018838 -0.056514      2.000000
  0.037676  0.037676 -0.037676      2.000000
  0.018838  0.056514 -0.018838      2.000000
  0.000000  0.075351  0.000000      2.000000
 -0.018838  0.094189  0.018838      2.000000
 -0.037676  0.113027  0.037676      2.000000
 -0.056514  0.131865  0.056514      2.000000
 -0.075351  0.150703  0.075351      2.000000
  0.150703 -0.075351 -0.150703      2.000000
  0.131865 -0.056514 -0.131865      2.000000
  0.113027 -0.037676 -0.113027      2.000000
  0.094189 -0.018838 -0.094189      2.000000
  0.075351  0.000000 -0.075351      2.000000
  0.056514  0.018838 -0.056514      2.000000
  0.056514  0.018838 -0.018838      2.000000
  0.037676  0.037676 -0.000000      2.000000
  0.018838  0.056514  0.018838      2.000000
  0.000000  0.075351  0.037676      2.000000
 -0.018838  0.094189  0.056514      2.000000
 -0.037676  0.113027  0.075351      2.000000
 -0.056514  0.131865  0.094189      2.000000
  0.169541 -0.094189 -0.131865      2.000000
  0.150703 -0.075351 -0.113027      2.000000
  0.131865 -0.056514 -0.094189      2.000000
  0.113027 -0.037676 -0.075351      2.000000
  0.094189 -0.018838 -0.056514      2.000000
  0.075351  0.000000 -0.037676      2.000000
  0.075351  0.000000  0.000000      2.000000
  0.056514  0.018838  0.018838      2.000000
  0.037676  0.037676  0.037676      2.000000
  0.018838  0.056514  0.056514      2.000000
  0.000000  0.075351  0.075351      2.000000
 -0.018838  0.094189  0.094189      2.000000
 -0.037676  0.113027  0.113027      2.000000
  0.188379 -0.113027 -0.113027      2.000000
  0.169541 -0.094189 -0.094189      2.000000
  0.150703 -0.075351 -0.075351      2.000000
  0.131865 -0.056514 -0.056514      2.000000
  0.113027 -0.037676 -0.037676      2.000000
  0.094189 -0.018838 -0.018838      2.000000
  0.094189 -0.018838  0.018838      2.000000
  0.075351  0.000000  0.037676      2.000000
  0.056514  0.018838  0.056514      2.000000
  0.037676  0.037676  0.075351      2.000000
  0.018838  0.056514  0.094189      2.000000
 -0.000000  0.075351  0.113027      2.000000
 -0.018838  0.094189  0.131865      2.000000
  0.207217 -0.131865 -0.094189      2.000000
  0.188379 -0.113027 -0.075351      2.000000
  0.169541 -0.094189 -0.056514      2.000000
  0.150703 -0.075351 -0.037676      2.000000
  0.131865 -0.056514 -0.018838      2.000000
  0.113027 -0.037676  0.000000      2.000000
  0.113027 -0.037676  0.037676      2.000000
  0.094189 -0.018838  0.056514      2.000000
  0.075351  0.000000  0.075351      2.000000
  0.056514  0.018838  0.094189      2.000000
  0.037676  0.037676  0.113027      2.000000
  0.018838  0.056514  0.131865      2.000000
  0.000000  0.075351  0.150703      2.000000
  0.226054 -0.150703 -0.075351      2.000000
  0.207217 -0.131865 -0.056514      2.000000
  0.188379 -0.113027 -0.037676      2.000000
  0.169541 -0.094189 -0.018838      2.000000
  0.150703 -0.075351  0.000000      2.000000
  0.131865 -0.056514  0.018838      2.000000
  0.131865 -0.056514  0.056514      2.000000
  0.113027 -0.037676  0.075351      2.000000
  0.094189 -0.018838  0.094189      2.000000
  0.075351 -0.000000  0.113027      2.000000
  0.056514  0.018838  0.131865      2.000000
  0.037676  0.037676  0.150703      2.000000
  0.018838  0.056514  0.169541      2.000000
  0.244892 -0.169541 -0.056514      2.000000
  0.226054 -0.150703 -0.037676      2.000000
  0.207217 -0.131865 -0.018838      2.000000
  0.188379 -0.113027  0.000000      2.000000
  0.169541 -0.094189  0.018838      2.000000
  0.150703 -0.075351  0.037676      2.000000
  0.150703 -0.075351  0.075351      2.000000
  0.131865 -0.056514  0.094189      2.000000
  0.113027 -0.037676  0.113027      2.000000
  0.094189 -0.018838  0.131865      2.000000
  0.075351  0.000000  0.150703      2.000000
  0.056514  0.018838  0.169541      2.000000
  0.037676  0.037676  0.188379      2.000000
  0.263730 -0.188379 -0.037676      2.000000
  0.244892 -0.169541 -0.018838      2.000000
  0.226054 -0.150703  0.000000      2.000000
  0.207217 -0.131865  0.018838      2.000000
  0.188379 -0.113027  0.037676      2.000000
  0.169541 -0.094189  0.056514      2.000000
 -0.075351  0.150703 -0.150703      2.000000
 -0.094189  0.169541 -0.131865      2.000000
 -0.113027  0.188379 -0.113027      2.000000
 -0.131865  0.207217 -0.094189      2.000000
 -0.150703  0.226054 -0.075351      2.000000
 -0.169541  0.244892 -0.056514      2.000000
 -0.188379  0.263730 -0.037676      2.000000
  0.037676  0.037676 -0.263730      2.000000
  0.018838  0.056514 -0.244892      2.000000
  0.000000  0.075351 -0.226054      2.000000
 -0.018838  0.094189 -0.207217      2.000000
 -0.037676  0.113027 -0.188379      2.000000
 -0.056514  0.131865 -0.169541      2.000000
 -0.056514  0.131865 -0.131865      2.000000
 -0.075351  0.150703 -0.113027      2.000000
 -0.094189  0.169541 -0.094189      2.000000
 -0.113027  0.188379 -0.075351      2.000000
 -0.131865  0.207217 -0.056514      2.000000
 -0.150703  0.226054 -0.037676      2.000000
 -0.169541  0.244892 -0.018838      2.000000
  0.056514  0.018838 -0.244892      2.000000
  0.037676  0.037676 -0.226054      2.000000
  0.018838  0.056514 -0.207217      2.000000
  0.000000  0.075351 -0.188379      2.000000
 -0.018838  0.094189 -0.169541      2.000000
 -0.037676  0.113027 -0.150703      2.000000
 -0.037676  0.113027 -0.113027      2.000000
 -0.056514  0.131865 -0.094189      2.000000
 -0.075351  0.150703 -0.075351      2.000000
 -0.094189  0.169541 -0.056514      2.000000
 -0.113027  0.188379 -0.037676      2.000000
 -0.131865  0.207217 -0.018838      2.000000
 -0.150703  0.226054  0.000000      2.000000
  0.075351  0.000000 -0.226054      2.000000
  0.056514  0.018838 -0.207217      2.000000
  0.037676  0.037676 -0.188379      2.000000
  0.018838  0.056514 -0.169541      2.000000
  0.000000  0.075351 -0.150703      2.000000
 -0.018838  0.094189 -0.131865      2.000000
 -0.018838  0.094189 -0.094189      2.000000
 -0.037676  0.113027 -0.075351      2.000000
 -0.056514  0.131865 -0.056514      2.000000
 -0.075351  0.150703 -0.037676      2.000000
 -0.094189  0.169541 -0.018838      2.000000
 -0.113027  0.188379  0.000000      2.000000
 -0.131865  0.207217  0.018838      2.000000
  0.094189 -0.018838 -0.207217      2.000000
  0.075351  0.000000 -0.188379      2.000000
  0.056514  0.018838 -0.169541      2.000000
  0.037676  0.037676 -0.150703      2.000000
  0.018838  0.056514 -0.131865      2.000000
  0.000000  0.075351 -0.113027      2.000000
  0.000000  0.075351 -0.075351      2.000000
 -0.018838  0.094189 -0.056514      2.000000
 -0.037676  0.113027 -0.037676      2.000000
 -0.056514  0.131865 -0.018838      2.000000
 -0.075351  0.150703 -0.000000      2.000000
 -0.094189  0.169541  0.018838      2.000000
 -0.113027  0.188379  0.037676      2.000000
  0.113027 -0.037676 -0.188379      2.000000
  0.094189 -0.018838 -0.169541      2.000000
  0.075351  0.000000 -0.150703      2.000000
  0.056514  0.018838 -0.131865      2.000000
  0.037676  0.037676 -0.113027      2.000000
  0.018838  0.056514 -0.094189      2.000000
  0.018838  0.056514 -0.056514      2.000000
  0.000000  0.075351 -0.037676      2.000000
 -0.018838  0.094189 -0.018838      2.000000
 -0.037676  0.113027  0.000000      2.000000
 -0.056514  0.131865  0.018838      2.000000
 -0.075351  0.150703  0.037676      2.000000
 -0.094189  0.169541  0.056514      2.000000
  0.131865 -0.056514 -0.169541      2.000000
  0.113027 -0.037676 -0.150703      2.000000
  0.094189 -0.018838 -0.131865      2.000000
  0.075351  0.000000 -0.113027      2.000000
  0.056514  0.018838 -0.094189      2.000000
  0.037676  0.037676 -0.075351      2.000000
  0.056514  0.056514 -0.056514      2.000000
  0.037676  0.075351 -0.037676      2.000000
  0.018838  0.094189 -0.018838      2.000000
  0.000000  0.113027  0.000000      2.000000
 -0.018838  0.131865  0.018838      2.000000
[...]

 k-point  1075 :       0.0769   -0.1538    0.4615
  band No.  band energies     occupation 
      1     -42.0610      2.00000
      2     -20.5471      2.00000
      3      -3.4242      2.00000
      4      -2.2613      2.00000
      5      -1.5778      2.00000
      6      11.0360      0.00000
      7      14.4487      0.00000
      8      17.6470      0.00000
      9      17.7836      0.00000
     10      26.0130      0.00000
     11      27.8608      0.00000
     12      31.8134      0.00000

 k-point  1076 :       0.1538   -0.1538    0.4615
  band No.  band energies     occupation 
      1     -42.0581      2.00000
      2     -20.5004      2.00000
      3      -3.3216      2.00000
      4      -2.6216      2.00000
      5      -1.7069      2.00000
      6      11.8798      0.00000
      7      14.1565      0.00000
      8      17.3667      0.00000
      9      17.8172      0.00000
     10      25.4257      0.00000
     11      27.1408      0.00000
     12      34.0336      0.00000

 k-point  1077 :       0.2308   -0.1538    0.4615
  band No.  band energies     occupation 
      1     -42.0556      2.00000
      2     -20.4555      2.00000
      3      -3.4083      2.00000
      4      -2.7215      2.00000
      5      -1.8550      2.00000
      6      12.7690      0.00000
      7      14.0531      0.00000
      8      16.7488      0.00000
      9      17.9489      0.00000
     10      23.6607      0.00000
     11      28.5572      0.00000
     12      33.2336      0.00000

 k-point  1078 :       0.3077   -0.1538    0.4615
  band No.  band energies     occupation 
      1     -42.0539      2.00000
      2     -20.4228      2.00000
      3      -3.6564      2.00000
      4      -2.5693      2.00000
      5      -1.9682      2.00000
      6      13.3315      0.00000
      7      14.2368      0.00000
      8      16.2070      0.00000
      9      18.1287      0.00000
     10      22.1083      0.00000
     11      30.5527      0.00000
     12      32.5385      0.00000

 k-point  1079 :       0.3846   -0.1538    0.4615
  band No.  band energies     occupation 
      1     -42.0534      2.00000
      2     -20.4098      2.00000
      3      -3.8216      2.00000
      4      -2.4215      2.00000
      5      -2.0108      2.00000
      6      13.4919      0.00000
      7      14.2780      0.00000
      8      16.2470      0.00000
      9      18.3839      0.00000
     10      20.8849      0.00000
     11      32.0981      0.00000
     12      32.9400      0.00000

 k-point  1080 :       0.4615   -0.1538    0.4615
  band No.  band energies     occupation 
      1     -42.0544      2.00000
      2     -20.4204      2.00000
      3      -3.8320      2.00000
      4      -2.3461      2.00000
      5      -1.9992      2.00000
      6      13.2608      0.00000
      7      14.3606      0.00000
      8      16.4939      0.00000
      9      18.5809      0.00000
     10      20.3486      0.00000
     11      32.0572      0.00000
     12      35.2286      0.00000

 k-point  1081 :      -0.4615   -0.1538    0.4615
  band No.  band energies     occupation 
      1     -42.0565      2.00000
      2     -20.4512      2.00000
      3      -3.6870      2.00000
      4      -2.3490      2.00000
      5      -1.9521      2.00000
      6      12.8191      0.00000
      7      14.5323      0.00000
      8      16.5996      0.00000
      9      18.4021      0.00000
     10      20.9870      0.00000
     11      31.5279      0.00000
     12      33.7166      0.00000

 k-point  1082 :      -0.3846   -0.1538    0.4615
  band No.  band energies     occupation 
      1     -42.0594      2.00000
      2     -20.4956      2.00000
      3      -3.4395      2.00000
      4      -2.4403      2.00000
      5      -1.8290      2.00000
      6      12.2810      0.00000
      7      14.4516      0.00000
      8      16.9392      0.00000
      9      18.1899      0.00000
     10      22.3225      0.00000
     11      29.8897      0.00000
     12      33.9548      0.00000

 k-point  1083 :      -0.3077   -0.1538    0.4615
  band No.  band energies     occupation 
      1     -42.0622      2.00000
      2     -20.5422      2.00000
      3      -3.2417      2.00000
      4      -2.4749      2.00000
      5      -1.6560      2.00000
      6      11.5981      0.00000
      7      14.3660      0.00000
      8      17.4641      0.00000
      9      18.0317      0.00000
     10      24.0758      0.00000
     11      28.4154      0.00000
     12      33.1906      0.00000

 k-point  1084 :      -0.2308   -0.1538    0.4615
  band No.  band energies     occupation 
      1     -42.0644      2.00000
      2     -20.5811      2.00000
      3      -3.2757      2.00000
      4      -2.2676      2.00000
      5      -1.4999      2.00000
      6      10.8962      0.00000
      7      14.4887      0.00000
      8      17.8019      0.00000
      9      17.8949      0.00000
     10      26.1330      0.00000
     11      27.6532      0.00000
     12      30.6849      0.00000

 k-point  1085 :      -0.1538   -0.1538    0.4615
  band No.  band energies     occupation 
      1     -42.0654      2.00000
      2     -20.6035      2.00000
      3      -3.4062      2.00000
      4      -1.9782      2.00000
      5      -1.4282      2.00000
      6      10.3879      0.00000
      7      14.7339      0.00000
      8      17.7847      0.00000
      9      17.8152      0.00000
     10      27.3608      0.00000
     11      28.5099      0.00000
     12      28.8877      0.00000

 k-point  1086 :      -0.0769   -0.1538    0.4615
  band No.  band energies     occupation 
      1     -42.0652      2.00000
      2     -20.6049      2.00000
      3      -3.4960      2.00000
      4      -1.8062      2.00000
      5      -1.4642      2.00000
      6      10.2199      0.00000
      7      14.8875      0.00000
      8      17.6808      0.00000
      9      17.7425      0.00000
     10      26.9366      0.00000
     11      28.4539      0.00000
     12      30.4925      0.00000

 k-point  1087 :       0.0000   -0.0769    0.4615
  band No.  band energies     occupation 
      1     -42.0666      2.00000
      2     -20.6301      2.00000
      3      -3.5700      2.00000
      4      -1.5352      2.00000
      5      -1.3974      2.00000
      6       9.7588      0.00000
      7      15.1559      0.00000
      8      17.6223      0.00000
      9      17.6261      0.00000
     10      28.3903      0.00000
     11      28.8704      0.00000
     12      29.5022      0.00000

 k-point  1088 :       0.0769   -0.0769    0.4615
  band No.  band energies     occupation 
      1     -42.0652      2.00000
      2     -20.6049      2.00000
      3      -3.4960      2.00000
      4      -1.8062      2.00000
      5      -1.4642      2.00000
      6      10.2199      0.00000
      7      14.8875      0.00000
      8      17.6808      0.00000
      9      17.7425      0.00000
     10      26.9366      0.00000
     11      28.4539      0.00000
     12      30.4924      0.00000

 k-point  1089 :       0.1538   -0.0769    0.4615
  band No.  band energies     occupation 
      1     -42.0626      2.00000
      2     -20.5595      2.00000
      3      -3.4031      2.00000
      4      -2.1734      2.00000
      5      -1.6115      2.00000
      6      11.0269      0.00000
      7      14.5731      0.00000
      8      17.5663      0.00000
      9      17.9473      0.00000
     10      24.6529      0.00000
     11      29.0475      0.00000
     12      32.1535      0.00000

 k-point  1090 :       0.2308   -0.0769    0.4615
  band No.  band energies     occupation 
      1     -42.0595      2.00000
      2     -20.5042      2.00000
      3      -3.4449      2.00000
      4      -2.3954      2.00000
      5      -1.7898      2.00000
      6      11.9847      0.00000
      7      14.4069      0.00000
      8      17.1728      0.00000
      9      18.1819      0.00000
     10      22.6114      0.00000
     11      30.2269      0.00000
     12      33.6295      0.00000

 k-point  1091 :       0.3077   -0.0769    0.4615
  band No.  band energies     occupation 
      1     -42.0565      2.00000
      2     -20.4512      2.00000
      3      -3.6871      2.00000
      4      -2.3490      2.00000
      5      -1.9521      2.00000
      6      12.8191      0.00000
      7      14.5323      0.00000
      8      16.5995      0.00000
      9      18.4021      0.00000
     10      20.9870      0.00000
     11      31.5279      0.00000
     12      33.7166      0.00000

 k-point  1092 :       0.3846   -0.0769    0.4615
  band No.  band energies     occupation 
      1     -42.0545      2.00000
      2     -20.4134      2.00000
      3      -3.9222      2.00000
      4      -2.2288      2.00000
      5      -2.0594      2.00000
      6      13.3010      0.00000
      7      14.8564      0.00000
      8      16.1573      0.00000
      9      18.5994      0.00000
     10      19.8193      0.00000
     11      31.8067      0.00000
     12      35.0335      0.00000

 k-point  1093 :       0.4615   -0.0769    0.4615
  band No.  band energies     occupation 
      1     -42.0537      2.00000
      2     -20.3996      2.00000
      3      -4.0123      2.00000
      4      -2.1839      2.00000
      5      -2.0883      2.00000
      6      13.4606      0.00000
      7      14.9438      0.00000
      8      16.0945      0.00000
      9      18.7614      0.00000
     10      19.2734      0.00000
     11      31.7121      0.00000
     12      36.5397      0.00000

 k-point  1094 :      -0.4615   -0.0769    0.4615
  band No.  band energies     occupation 
      1     -42.0545      2.00000
      2     -20.4134      2.00000
      3      -3.9222      2.00000
      4      -2.2288      2.00000
      5      -2.0594      2.00000
      6      13.3010      0.00000
      7      14.8564      0.00000
      8      16.1573      0.00000
      9      18.5994      0.00000
     10      19.8193      0.00000
     11      31.8067      0.00000
     12      35.0325      0.00000

 k-point  1095 :      -0.3846   -0.0769    0.4615
  band No.  band energies     occupation 
      1     -42.0565      2.00000
      2     -20.4512      2.00000
      3      -3.6870      2.00000
      4      -2.3490      2.00000
      5      -1.9521      2.00000
      6      12.8191      0.00000
      7      14.5323      0.00000
      8      16.5996      0.00000
      9      18.4021      0.00000
     10      20.9870      0.00000
     11      31.5279      0.00000
     12      33.7166      0.00000

 k-point  1096 :      -0.3077   -0.0769    0.4615
  band No.  band energies     occupation 
      1     -42.0595      2.00000
      2     -20.5042      2.00000
      3      -3.4449      2.00000
      4      -2.3954      2.00000
      5      -1.7898      2.00000
      6      11.9847      0.00000
      7      14.4070      0.00000
      8      17.1728      0.00000
      9      18.1819      0.00000
     10      22.6114      0.00000
     11      30.2269      0.00000
     12      33.6030      0.00000

 k-point  1097 :      -0.2308   -0.0769    0.4615
  band No.  band energies     occupation 
      1     -42.0626      2.00000
      2     -20.5595      2.00000
      3      -3.4031      2.00000
      4      -2.1734      2.00000
      5      -1.6115      2.00000
      6      11.0269      0.00000
      7      14.5731      0.00000
      8      17.5664      0.00000
      9      17.9473      0.00000
     10      24.6529      0.00000
     11      29.0475      0.00000
     12      32.1535      0.00000

 k-point  1098 :      -0.1538   -0.0769    0.4615
  band No.  band energies     occupation 
      1     -42.0652      2.00000
      2     -20.6049      2.00000
      3      -3.4960      2.00000
      4      -1.8062      2.00000
      5      -1.4642      2.00000
      6      10.2199      0.00000
      7      14.8875      0.00000
      8      17.6808      0.00000
      9      17.7425      0.00000
     10      26.9366      0.00000
     11      28.4539      0.00000
     12      30.4925      0.00000

 k-point  1099 :      -0.0769   -0.0769    0.4615
  band No.  band energies     occupation 
      1     -42.0666      2.00000
      2     -20.6301      2.00000
      3      -3.5700      2.00000
      4      -1.5352      2.00000
      5      -1.3974      2.00000
      6       9.7588      0.00000
      7      15.1559      0.00000
      8      17.6223      0.00000
      9      17.6261      0.00000
     10      28.3902      0.00000
     11      28.8704      0.00000
     12      29.5023      0.00000


--------------------------------------------------------------------------------------------------------


 soft charge-density along one line, spin component           1
         0         1         2         3         4         5         6         7         8         9
 total charge-density along one line
 
 pseudopotential strength for first ion, spin component:           1
-38.694   3.441  -0.000  -0.000  -0.000
  3.441  -9.842  -0.000   0.000   0.000
 -0.000  -0.000   0.176   0.000   0.000
 -0.000   0.000   0.000   0.176   0.000
 -0.000   0.000   0.000   0.000   0.176
 total augmentation occupancy for first ion, spin component:           1
  2.000  -0.009   0.000  -0.000   0.000
 -0.009   0.609   0.000   0.000   0.000
  0.000   0.000   0.022   0.000   0.000
 -0.000   0.000   0.000   0.022   0.000
  0.000   0.000   0.000   0.000   0.022


------------------------ aborting loop because EDIFF is reached ----------------------------------------


 


 total charge     
 
# of ion       s       p       d       tot
------------------------------------------
    1        2.015   0.046   0.000   2.061
    2        1.728   4.405   0.000   6.134
--------------------------------------------------
tot          3.743   4.451   0.000   8.195
 
    CHARGE:  cpu time    0.0891: real time    0.0891
    FORLOC:  cpu time    0.0003: real time    0.0003
    FORNL :  cpu time    0.8002: real time    0.8004
    STRESS:  cpu time    2.3293: real time    2.3297
    FORCOR:  cpu time    0.0047: real time    0.0047
    FORHAR:  cpu time    0.0011: real time    0.0011
    MIXING:  cpu time    0.0003: real time    0.0003
    OFIELD:  cpu time    0.0000: real time    0.0000

  FORCE on cell =-STRESS in cart. coord.  units (eV):
  Direction    XX          YY          ZZ          XY          YZ          ZX
  --------------------------------------------------------------------------------------
  Alpha Z    19.61698    19.61698    19.61698
  Ewald    -184.35555  -184.35555  -184.35554     0.00004     0.00004     0.00004
  Hartree    76.35140    76.35140    76.35141    -0.00002    -0.00002    -0.00002
  E(xc)     -54.24893   -54.24893   -54.24893     0.00001     0.00001     0.00001
  Local     -40.35530   -40.35530   -40.35531    -0.00003    -0.00003    -0.00003
  n-local   -55.28919   -55.28919   -55.28919     0.00000     0.00000     0.00000
  augment    36.19433    36.19433    36.19433     0.00002     0.00002     0.00002
  Kinetic   202.09294   202.09294   202.09294     0.00000     0.00000     0.00000
  Fock        0.00000     0.00000     0.00000     0.00000     0.00000     0.00000
  -------------------------------------------------------------------------------------
  Total       0.00667     0.00667     0.00667     0.00002     0.00002     0.00002
  in kB       0.64015     0.64015     0.64018     0.00238     0.00238     0.00239
  external pressure =        0.64 kB  Pullay stress =        0.00 kB


 VOLUME and BASIS-vectors are now :
 -----------------------------------------------------------------------------
  energy-cutoff  :      520.00
  volume of cell :       16.70
      direct lattice vectors                 reciprocal lattice vectors
     0.000003560  2.028817965  2.028817924    -0.246449570  0.246449139  0.246449142
     2.028817959  0.000003567  2.028817917     0.246449140 -0.246449571  0.246449143
     2.028817981  2.028817980  0.000003544     0.246449135  0.246449136 -0.246449573

  length of vectors
     2.869181852  2.869181843  2.869181904     0.426862681  0.426862683  0.426862676


 FORCES acting on ions
    electron-ion (+dipol)            ewald-force                    non-local-force                 convergence-correction
 -----------------------------------------------------------------------------------------------
   0.193E-05 0.161E-06 0.590E-05   -.178E-05 -.968E-07 -.559E-05   -.140E-06 -.435E-07 -.393E-06   -.345E-08 0.241E-07 -.492E-07
   -.150E-05 -.253E-07 -.489E-05   0.178E-05 0.968E-07 0.559E-05   -.307E-06 0.342E-08 -.963E-06   0.489E-07 -.878E-07 0.386E-06
 -----------------------------------------------------------------------------------------------
   0.433E-06 0.136E-06 0.101E-05   -.491E-15 0.109E-15 -.501E-15   -.446E-06 -.401E-07 -.136E-05   0.455E-07 -.637E-07 0.337E-06
 
 
 POSITION                                       TOTAL-FORCE (eV/Angst)
 -----------------------------------------------------------------------------------
      0.00000      0.00000      0.00000        -0.000000      0.000000     -0.000000
      2.02882      2.02882      2.02882         0.000000     -0.000000      0.000000
 -----------------------------------------------------------------------------------
    total drift:                                0.000000      0.000000     -0.000000


--------------------------------------------------------------------------------------------------------



  FREE ENERGIE OF THE ION-ELECTRON SYSTEM (eV)
  ---------------------------------------------------
  free  energy   TOTEN  =        -9.64171612 eV

  energy  without entropy=       -9.64171612  energy(sigma->0) =       -9.64171612
 
 d Force =-0.2195549E-14[-0.468E-14, 0.289E-15]  d Energy = 0.2505006E-03-0.251E-03
 d Force =-0.1747350E-12[-0.237E-12,-0.112E-12]  d Ewald  = 0.1831626E+01-0.183E+01


--------------------------------------------------------------------------------------------------------


    POTLOK:  cpu time    0.0396: real time    0.0397


--------------------------------------------------------------------------------------------------------


 stress matrix after NEB project (eV)
      0.00667      0.00002      0.00002
      0.00002      0.00667      0.00002
      0.00002      0.00002      0.00667
  FORCES: max atom, RMS     0.000000    0.000000
  FORCE total and by dimension    0.000000    0.000000
  Stress total and by dimension    0.011559    0.006673


--------------------------------------------------------------------------------------------------------


  
 reached required accuracy - stopping structural energy minimisation
 writing wavefunctions
     LOOP+:  cpu time   26.7021: real time   27.3019
    4ORBIT:  cpu time    0.0000: real time    0.0000
 


 total charge     
 
# of ion       s       p       d       tot
------------------------------------------
    1        2.015   0.046   0.000   2.061
    2        1.728   4.405   0.000   6.134
--------------------------------------------------
tot          3.743   4.451   0.000   8.195
 

 total amount of memory used by VASP MPI-rank0    38115. kBytes
=======================================================================

   base      :      30000. kBytes
   nonlr-proj:        266. kBytes
   fftplans  :        344. kBytes
   grid      :        539. kBytes
   one-center:          3. kBytes
   wavefun   :       6963. kBytes
 
  
  
 General timing and accounting informations for this job:
 ========================================================
  
                  Total CPU time used (sec):      101.343
                            User time (sec):       91.109
                          System time (sec):       10.233
                         Elapsed time (sec):      104.577
  
                   Maximum memory used (kb):       65108.
                   Average memory used (kb):           0.
  
                          Minor page faults:       742198
                          Major page faults:            0
                 Voluntary context switches:          971
