unknown system                          
           1
     0.000000    2.041714    2.041714
     2.041714    0.000000    2.041714
     2.041714    2.041714    0.000000
   Li   F 
   1   1
Direct configuration=     1
   0.00000000  0.00000000  0.00000000
   0.50000000  0.50000000  0.50000000
unknown system                          
           1
     0.000002    2.035558    2.035558
     2.035558    0.000002    2.035558
     2.035558    2.035558    0.000002
   Li   F 
   1   1
Direct configuration=     2
   0.00000000  0.00000001 -0.00000000
   0.50000000  0.49999999  0.50000000
unknown system                          
           1
     0.000004    2.028818    2.028818
     2.028818    0.000004    2.028818
     2.028818    2.028818    0.000004
   Li   F 
   1   1
Direct configuration=     3
   0.00000001  0.00000001 -0.00000001
   0.49999999  0.49999999  0.50000001
