  12  12   1   0
  0.1050332E+02  0.2916331E-09  0.4580966E-09  0.9434393E-09  0.5000000E-15
  1.000000000000000E-004
  CAR 
 unknown system                          
     20.80346344    -49.45540161  301      4.46827732      1.00000000
    -49.455  0.0000E+00  0.0000E+00  0.0000E+00  0.0000E+00
    -49.221  0.0000E+00  0.0000E+00  0.0000E+00  0.0000E+00
    -48.987  0.0000E+00  0.0000E+00  0.0000E+00  0.0000E+00
    -48.753  0.0000E+00  0.0000E+00  0.0000E+00  0.0000E+00
    -48.519  0.0000E+00  0.0000E+00  0.0000E+00  0.0000E+00
    -48.284  0.0000E+00  0.0000E+00  0.0000E+00  0.0000E+00
    -48.050  0.0000E+00  0.0000E+00  0.0000E+00  0.0000E+00
    -47.816  0.0000E+00  0.0000E+00  0.0000E+00  0.0000E+00
    -47.582  0.0000E+00  0.0000E+00  0.0000E+00  0.0000E+00
    -47.348  0.0000E+00  0.0000E+00  0.0000E+00  0.0000E+00
    -47.113  0.0000E+00  0.0000E+00  0.0000E+00  0.0000E+00
    -46.879  0.0000E+00  0.0000E+00  0.0000E+00  0.0000E+00
    -46.645  0.0000E+00  0.0000E+00  0.0000E+00  0.0000E+00
    -46.411  0.0000E+00  0.0000E+00  0.0000E+00  0.0000E+00
    -46.177  0.4442E-01  0.0000E+00  0.2045E-01  0.0000E+00
    -45.942  0.8583E-01  0.0000E+00  0.6030E-01  0.0000E+00
    -45.708  0.0000E+00  0.0000E+00  0.6030E-01  0.0000E+00
    -45.474  0.0000E+00  0.0000E+00  0.6030E-01  0.0000E+00
    -45.240  0.0000E+00  0.0000E+00  0.6030E-01  0.0000E+00
    -45.006  0.0000E+00  0.0000E+00  0.6030E-01  0.0000E+00
    -44.771  0.0000E+00  0.0000E+00  0.6030E-01  0.0000E+00
    -44.537  0.0000E+00  0.0000E+00  0.6030E-01  0.0000E+00
    -44.303  0.0000E+00  0.0000E+00  0.6030E-01  0.0000E+00
    -44.069  0.0000E+00  0.0000E+00  0.6030E-01  0.0000E+00
    -43.835  0.0000E+00  0.0000E+00  0.6030E-01  0.0000E+00
    -43.600  0.0000E+00  0.6490E-02  0.6030E-01  0.1520E-02
    -43.366  0.0000E+00  0.0000E+00  0.6030E-01  0.2010E-01
    -43.132  0.0000E+00  0.0000E+00  0.6030E-01  0.2010E-01
    -42.898  0.0000E+00  0.7607E-01  0.6030E-01  0.4797E-01
    -42.664  0.0000E+00  0.0000E+00  0.6030E-01  0.6030E-01
    -42.430  0.0000E+00  0.0000E+00  0.6030E-01  0.6030E-01
    -42.195  0.0000E+00  0.0000E+00  0.6030E-01  0.6030E-01
    -41.961  0.0000E+00  0.0000E+00  0.6030E-01  0.6030E-01
    -41.727  0.0000E+00  0.0000E+00  0.6030E-01  0.6030E-01
    -41.493  0.0000E+00  0.0000E+00  0.6030E-01  0.6030E-01
    -41.259  0.0000E+00  0.0000E+00  0.6030E-01  0.6030E-01
    -41.024  0.0000E+00  0.0000E+00  0.6030E-01  0.6030E-01
    -40.790  0.0000E+00  0.0000E+00  0.6030E-01  0.6030E-01
    -40.556  0.0000E+00  0.0000E+00  0.6030E-01  0.6030E-01
    -40.322  0.0000E+00  0.0000E+00  0.6030E-01  0.6030E-01
    -40.088  0.0000E+00  0.0000E+00  0.6030E-01  0.6030E-01
    -39.853  0.0000E+00  0.0000E+00  0.6030E-01  0.6030E-01
    -39.619  0.0000E+00  0.0000E+00  0.6030E-01  0.6030E-01
    -39.385  0.0000E+00  0.0000E+00  0.6030E-01  0.6030E-01
    -39.151  0.0000E+00  0.0000E+00  0.6030E-01  0.6030E-01
    -38.917  0.0000E+00  0.0000E+00  0.6030E-01  0.6030E-01
    -38.682  0.0000E+00  0.0000E+00  0.6030E-01  0.6030E-01
    -38.448  0.0000E+00  0.0000E+00  0.6030E-01  0.6030E-01
    -38.214  0.0000E+00  0.0000E+00  0.6030E-01  0.6030E-01
    -37.980  0.0000E+00  0.0000E+00  0.6030E-01  0.6030E-01
    -37.746  0.0000E+00  0.0000E+00  0.6030E-01  0.6030E-01
    -37.511  0.0000E+00  0.0000E+00  0.6030E-01  0.6030E-01
    -37.277  0.0000E+00  0.0000E+00  0.6030E-01  0.6030E-01
    -37.043  0.0000E+00  0.0000E+00  0.6030E-01  0.6030E-01
    -36.809  0.0000E+00  0.0000E+00  0.6030E-01  0.6030E-01
    -36.575  0.0000E+00  0.0000E+00  0.6030E-01  0.6030E-01
    -36.340  0.0000E+00  0.0000E+00  0.6030E-01  0.6030E-01
    -36.106  0.0000E+00  0.0000E+00  0.6030E-01  0.6030E-01
    -35.872  0.0000E+00  0.0000E+00  0.6030E-01  0.6030E-01
    -35.638  0.0000E+00  0.0000E+00  0.6030E-01  0.6030E-01
    -35.404  0.0000E+00  0.0000E+00  0.6030E-01  0.6030E-01
    -35.169  0.0000E+00  0.0000E+00  0.6030E-01  0.6030E-01
    -34.935  0.0000E+00  0.0000E+00  0.6030E-01  0.6030E-01
    -34.701  0.0000E+00  0.0000E+00  0.6030E-01  0.6030E-01
    -34.467  0.0000E+00  0.0000E+00  0.6030E-01  0.6030E-01
    -34.233  0.0000E+00  0.0000E+00  0.6030E-01  0.6030E-01
    -33.998  0.0000E+00  0.0000E+00  0.6030E-01  0.6030E-01
    -33.764  0.0000E+00  0.0000E+00  0.6030E-01  0.6030E-01
    -33.530  0.0000E+00  0.0000E+00  0.6030E-01  0.6030E-01
    -33.296  0.0000E+00  0.0000E+00  0.6030E-01  0.6030E-01
    -33.062  0.0000E+00  0.0000E+00  0.6030E-01  0.6030E-01
    -32.827  0.0000E+00  0.0000E+00  0.6030E-01  0.6030E-01
    -32.593  0.0000E+00  0.0000E+00  0.6030E-01  0.6030E-01
    -32.359  0.0000E+00  0.0000E+00  0.6030E-01  0.6030E-01
    -32.125  0.0000E+00  0.0000E+00  0.6030E-01  0.6030E-01
    -31.891  0.0000E+00  0.0000E+00  0.6030E-01  0.6030E-01
    -31.656  0.0000E+00  0.0000E+00  0.6030E-01  0.6030E-01
    -31.422  0.0000E+00  0.0000E+00  0.6030E-01  0.6030E-01
    -31.188  0.0000E+00  0.0000E+00  0.6030E-01  0.6030E-01
    -30.954  0.0000E+00  0.0000E+00  0.6030E-01  0.6030E-01
    -30.720  0.0000E+00  0.0000E+00  0.6030E-01  0.6030E-01
    -30.486  0.0000E+00  0.0000E+00  0.6030E-01  0.6030E-01
    -30.251  0.0000E+00  0.0000E+00  0.6030E-01  0.6030E-01
    -30.017  0.0000E+00  0.0000E+00  0.6030E-01  0.6030E-01
    -29.783  0.0000E+00  0.0000E+00  0.6030E-01  0.6030E-01
    -29.549  0.0000E+00  0.0000E+00  0.6030E-01  0.6030E-01
    -29.315  0.0000E+00  0.0000E+00  0.6030E-01  0.6030E-01
    -29.080  0.0000E+00  0.0000E+00  0.6030E-01  0.6030E-01
    -28.846  0.0000E+00  0.0000E+00  0.6030E-01  0.6030E-01
    -28.612  0.0000E+00  0.0000E+00  0.6030E-01  0.6030E-01
    -28.378  0.0000E+00  0.0000E+00  0.6030E-01  0.6030E-01
    -28.144  0.0000E+00  0.0000E+00  0.6030E-01  0.6030E-01
    -27.909  0.0000E+00  0.0000E+00  0.6030E-01  0.6030E-01
    -27.675  0.0000E+00  0.0000E+00  0.6030E-01  0.6030E-01
    -27.441  0.0000E+00  0.0000E+00  0.6030E-01  0.6030E-01
    -27.207  0.0000E+00  0.0000E+00  0.6030E-01  0.6030E-01
    -26.973  0.0000E+00  0.0000E+00  0.6030E-01  0.6030E-01
    -26.738  0.0000E+00  0.0000E+00  0.6030E-01  0.6030E-01
    -26.504  0.0000E+00  0.0000E+00  0.6030E-01  0.6030E-01
    -26.270  0.0000E+00  0.0000E+00  0.6030E-01  0.6030E-01
    -26.036  0.0000E+00  0.0000E+00  0.6030E-01  0.6030E-01
    -25.802  0.0000E+00  0.0000E+00  0.6030E-01  0.6030E-01
    -25.567  0.0000E+00  0.0000E+00  0.6030E-01  0.6030E-01
    -25.333  0.0000E+00  0.0000E+00  0.6030E-01  0.6030E-01
    -25.099  0.0000E+00  0.0000E+00  0.6030E-01  0.6030E-01
    -24.865  0.0000E+00  0.0000E+00  0.6030E-01  0.6030E-01
    -24.631  0.0000E+00  0.0000E+00  0.6030E-01  0.6030E-01
    -24.396  0.0000E+00  0.0000E+00  0.6030E-01  0.6030E-01
    -24.162  0.0000E+00  0.0000E+00  0.6030E-01  0.6030E-01
    -23.928  0.0000E+00  0.0000E+00  0.6030E-01  0.6030E-01
    -23.694  0.0000E+00  0.0000E+00  0.6030E-01  0.6030E-01
    -23.460  0.0000E+00  0.0000E+00  0.6030E-01  0.6030E-01
    -23.225  0.0000E+00  0.0000E+00  0.6030E-01  0.6030E-01
    -22.991  0.0000E+00  0.0000E+00  0.6030E-01  0.6030E-01
    -22.757  0.0000E+00  0.0000E+00  0.6030E-01  0.6030E-01
    -22.523  0.0000E+00  0.0000E+00  0.6030E-01  0.6030E-01
    -22.289  0.0000E+00  0.0000E+00  0.6030E-01  0.6030E-01
    -22.054  0.0000E+00  0.0000E+00  0.6030E-01  0.6030E-01
    -21.820  0.0000E+00  0.0000E+00  0.6030E-01  0.6030E-01
    -21.586  0.0000E+00  0.0000E+00  0.6030E-01  0.6030E-01
    -21.352  0.0000E+00  0.0000E+00  0.6030E-01  0.6030E-01
    -21.118  0.0000E+00  0.0000E+00  0.6030E-01  0.6030E-01
    -20.883  0.0000E+00  0.0000E+00  0.6030E-01  0.6030E-01
    -20.649  0.0000E+00  0.0000E+00  0.6030E-01  0.6030E-01
    -20.415  0.0000E+00  0.0000E+00  0.6030E-01  0.6030E-01
    -20.181  0.0000E+00  0.0000E+00  0.6030E-01  0.6030E-01
    -19.947  0.0000E+00  0.0000E+00  0.6030E-01  0.6030E-01
    -19.712  0.0000E+00  0.0000E+00  0.6030E-01  0.6030E-01
    -19.478  0.0000E+00  0.0000E+00  0.6030E-01  0.6030E-01
    -19.244  0.0000E+00  0.0000E+00  0.6030E-01  0.6030E-01
    -19.010  0.0000E+00  0.0000E+00  0.6030E-01  0.6030E-01
    -18.776  0.0000E+00  0.0000E+00  0.6030E-01  0.6030E-01
    -18.542  0.0000E+00  0.0000E+00  0.6030E-01  0.6030E-01
    -18.307  0.0000E+00  0.0000E+00  0.6030E-01  0.6030E-01
    -18.073  0.0000E+00  0.0000E+00  0.6030E-01  0.6030E-01
    -17.839  0.0000E+00  0.0000E+00  0.6030E-01  0.6030E-01
    -17.605  0.0000E+00  0.0000E+00  0.6030E-01  0.6030E-01
    -17.371  0.0000E+00  0.0000E+00  0.6030E-01  0.6030E-01
    -17.136  0.0000E+00  0.0000E+00  0.6030E-01  0.6030E-01
    -16.902  0.0000E+00  0.0000E+00  0.6030E-01  0.6030E-01
    -16.668  0.0000E+00  0.0000E+00  0.6030E-01  0.6030E-01
    -16.434  0.0000E+00  0.0000E+00  0.6030E-01  0.6030E-01
    -16.200  0.0000E+00  0.0000E+00  0.6030E-01  0.6030E-01
    -15.965  0.0000E+00  0.0000E+00  0.6030E-01  0.6030E-01
    -15.731  0.0000E+00  0.0000E+00  0.6030E-01  0.6030E-01
    -15.497  0.0000E+00  0.0000E+00  0.6533E-01  0.6030E-01
    -15.263  0.0000E+00  0.0000E+00  0.6533E-01  0.6533E-01
    -15.029  0.2137E-01  0.0000E+00  0.7536E-01  0.6533E-01
    -14.794  0.0000E+00  0.4096E-08  0.7538E-01  0.7035E-01
    -14.560  0.0000E+00  0.0000E+00  0.7538E-01  0.7538E-01
    -14.326  0.0000E+00  0.0000E+00  0.8040E-01  0.7538E-01
    -14.092  0.0000E+00  0.0000E+00  0.8040E-01  0.8040E-01
    -13.858  0.0000E+00  0.0000E+00  0.8040E-01  0.8040E-01
    -13.623  0.0000E+00  0.0000E+00  0.8040E-01  0.8040E-01
    -13.389  0.5513E-01  0.0000E+00  0.9331E-01  0.8040E-01
    -13.155  0.0000E+00  0.4107E-01  0.1005E+00  0.1001E+00
    -12.921  0.0000E+00  0.0000E+00  0.1005E+00  0.1005E+00
    -12.687  0.0000E+00  0.0000E+00  0.1005E+00  0.1005E+00
    -12.452  0.0000E+00  0.0000E+00  0.1005E+00  0.1005E+00
    -12.218  0.0000E+00  0.0000E+00  0.1005E+00  0.1005E+00
    -11.984  0.0000E+00  0.0000E+00  0.1005E+00  0.1005E+00
    -11.750  0.0000E+00  0.0000E+00  0.1005E+00  0.1005E+00
    -11.516  0.0000E+00  0.0000E+00  0.1005E+00  0.1005E+00
    -11.281  0.0000E+00  0.0000E+00  0.1005E+00  0.1005E+00
    -11.047  0.0000E+00  0.0000E+00  0.1005E+00  0.1005E+00
    -10.813  0.0000E+00  0.0000E+00  0.1005E+00  0.1005E+00
    -10.579  0.0000E+00  0.0000E+00  0.1005E+00  0.1005E+00
    -10.345  0.0000E+00  0.0000E+00  0.1005E+00  0.1005E+00
    -10.110  0.0000E+00  0.0000E+00  0.1005E+00  0.1005E+00
     -9.876  0.0000E+00  0.0000E+00  0.1005E+00  0.1005E+00
     -9.642  0.0000E+00  0.0000E+00  0.1005E+00  0.1005E+00
     -9.408  0.0000E+00  0.0000E+00  0.1005E+00  0.1005E+00
     -9.174  0.0000E+00  0.0000E+00  0.1005E+00  0.1005E+00
     -8.939  0.0000E+00  0.0000E+00  0.1005E+00  0.1005E+00
     -8.705  0.0000E+00  0.0000E+00  0.1005E+00  0.1005E+00
     -8.471  0.0000E+00  0.0000E+00  0.1005E+00  0.1005E+00
     -8.237  0.0000E+00  0.0000E+00  0.1005E+00  0.1005E+00
     -8.003  0.0000E+00  0.0000E+00  0.1005E+00  0.1005E+00
     -7.768  0.0000E+00  0.0000E+00  0.1005E+00  0.1005E+00
     -7.534  0.0000E+00  0.0000E+00  0.1005E+00  0.1005E+00
     -7.300  0.0000E+00  0.0000E+00  0.1005E+00  0.1005E+00
     -7.066  0.0000E+00  0.0000E+00  0.1005E+00  0.1005E+00
     -6.832  0.0000E+00  0.0000E+00  0.1005E+00  0.1005E+00
     -6.597  0.0000E+00  0.0000E+00  0.1005E+00  0.1005E+00
     -6.363  0.0000E+00  0.0000E+00  0.1005E+00  0.1005E+00
     -6.129  0.0000E+00  0.0000E+00  0.1005E+00  0.1005E+00
     -5.895  0.0000E+00  0.0000E+00  0.1005E+00  0.1005E+00
     -5.661  0.0000E+00  0.0000E+00  0.1005E+00  0.1005E+00
     -5.427  0.0000E+00  0.0000E+00  0.1005E+00  0.1005E+00
     -5.192  0.0000E+00  0.0000E+00  0.1005E+00  0.1005E+00
     -4.958  0.0000E+00  0.0000E+00  0.1005E+00  0.1005E+00
     -4.724  0.0000E+00  0.0000E+00  0.1005E+00  0.1005E+00
     -4.490  0.0000E+00  0.0000E+00  0.1005E+00  0.1005E+00
     -4.256  0.0000E+00  0.0000E+00  0.1005E+00  0.1005E+00
     -4.021  0.0000E+00  0.0000E+00  0.1005E+00  0.1005E+00
     -3.787  0.0000E+00  0.0000E+00  0.1005E+00  0.1005E+00
     -3.553  0.0000E+00  0.0000E+00  0.1005E+00  0.1005E+00
     -3.319  0.0000E+00  0.0000E+00  0.1005E+00  0.1005E+00
     -3.085  0.0000E+00  0.0000E+00  0.1005E+00  0.1005E+00
     -2.850  0.2146E-01  0.0000E+00  0.1055E+00  0.1005E+00
     -2.616  0.0000E+00  0.0000E+00  0.1156E+00  0.1005E+00
     -2.382  0.0000E+00  0.0000E+00  0.1206E+00  0.1005E+00
     -2.148  0.0000E+00  0.1825E-01  0.1206E+00  0.1098E+00
     -1.914  0.4269E-01  0.1268E-11  0.1306E+00  0.1156E+00
     -1.679  0.0000E+00  0.0000E+00  0.1407E+00  0.1206E+00
     -1.445  0.2129E-01  0.0000E+00  0.1457E+00  0.1206E+00
     -1.211  0.2146E-01  0.2146E-01  0.1558E+00  0.1256E+00
     -0.977  0.0000E+00  0.0000E+00  0.1558E+00  0.1407E+00
     -0.743  0.0000E+00  0.2146E-01  0.1608E+00  0.1457E+00
     -0.508  0.0000E+00  0.0000E+00  0.1608E+00  0.1558E+00
     -0.274  0.0000E+00  0.0000E+00  0.1608E+00  0.1558E+00
     -0.040  0.6163E-05  0.4197E-08  0.1608E+00  0.1558E+00
      0.194  0.0000E+00  0.0000E+00  0.1658E+00  0.1608E+00
      0.428  0.4137E-01  0.0000E+00  0.1805E+00  0.1608E+00
      0.663  0.0000E+00  0.0000E+00  0.1809E+00  0.1608E+00
      0.897  0.2219E-01  0.0000E+00  0.1861E+00  0.1608E+00
      1.131  0.2146E-01  0.4291E-01  0.2010E+00  0.1759E+00
      1.365  0.0000E+00  0.1067E-01  0.2060E+00  0.1834E+00
      1.599  0.2146E-01  0.4291E-01  0.2111E+00  0.1960E+00
      1.834  0.0000E+00  0.0000E+00  0.2161E+00  0.1960E+00
      2.068  0.2144E-01  0.0000E+00  0.2312E+00  0.2010E+00
      2.302  0.0000E+00  0.2700E-13  0.2312E+00  0.2010E+00
      2.536  0.0000E+00  0.0000E+00  0.2312E+00  0.2161E+00
      2.770  0.0000E+00  0.0000E+00  0.2312E+00  0.2161E+00
      3.005  0.5055E-02  0.0000E+00  0.2374E+00  0.2161E+00
      3.239  0.0000E+00  0.2146E-01  0.2412E+00  0.2211E+00
      3.473  0.4118E-01  0.0000E+00  0.2509E+00  0.2211E+00
      3.707  0.2146E-01  0.0000E+00  0.2613E+00  0.2211E+00
      3.941  0.2145E-01  0.0000E+00  0.2714E+00  0.2211E+00
      4.176  0.2145E-01  0.0000E+00  0.2764E+00  0.2211E+00
      4.410  0.0000E+00  0.0000E+00  0.2814E+00  0.2211E+00
      4.644  0.0000E+00  0.0000E+00  0.2814E+00  0.2211E+00
      4.878  0.0000E+00  0.3916E-03  0.2814E+00  0.2212E+00
      5.112  0.0000E+00  0.7513E-13  0.2814E+00  0.2261E+00
      5.347  0.0000E+00  0.2146E-01  0.2814E+00  0.2362E+00
      5.581  0.1915E-03  0.2146E-01  0.2815E+00  0.2412E+00
      5.815  0.0000E+00  0.0000E+00  0.2915E+00  0.2412E+00
      6.049  0.0000E+00  0.3338E-04  0.2915E+00  0.2412E+00
      6.283  0.0000E+00  0.2146E-01  0.2965E+00  0.2714E+00
      6.517  0.4764E-17  0.0000E+00  0.2965E+00  0.2764E+00
      6.752  0.0000E+00  0.0000E+00  0.3015E+00  0.2814E+00
      6.986  0.0000E+00  0.0000E+00  0.3015E+00  0.2814E+00
      7.220  0.1382E-02  0.0000E+00  0.3018E+00  0.2864E+00
      7.454  0.0000E+00  0.0000E+00  0.3116E+00  0.2915E+00
      7.688  0.0000E+00  0.2146E-01  0.3216E+00  0.2965E+00
      7.923  0.0000E+00  0.0000E+00  0.3216E+00  0.3015E+00
      8.157  0.0000E+00  0.0000E+00  0.3216E+00  0.3015E+00
      8.391  0.0000E+00  0.0000E+00  0.3216E+00  0.3015E+00
      8.625  0.0000E+00  0.2143E-01  0.3216E+00  0.3116E+00
      8.859  0.0000E+00  0.4257E-01  0.3216E+00  0.3215E+00
      9.094  0.0000E+00  0.0000E+00  0.3216E+00  0.3216E+00
      9.328  0.0000E+00  0.0000E+00  0.3216E+00  0.3216E+00
      9.562  0.0000E+00  0.0000E+00  0.3216E+00  0.3216E+00
      9.796  0.0000E+00  0.0000E+00  0.3216E+00  0.3216E+00
     10.030  0.0000E+00  0.0000E+00  0.3216E+00  0.3216E+00
     10.265  0.0000E+00  0.0000E+00  0.3216E+00  0.3216E+00
     10.499  0.8196E-12  0.0000E+00  0.3216E+00  0.3216E+00
     10.733  0.0000E+00  0.0000E+00  0.3266E+00  0.3216E+00
     10.967  0.0000E+00  0.0000E+00  0.3266E+00  0.3216E+00
     11.201  0.0000E+00  0.0000E+00  0.3266E+00  0.3266E+00
     11.436  0.0000E+00  0.0000E+00  0.3266E+00  0.3266E+00
     11.670  0.0000E+00  0.0000E+00  0.3266E+00  0.3266E+00
     11.904  0.0000E+00  0.0000E+00  0.3266E+00  0.3266E+00
     12.138  0.0000E+00  0.0000E+00  0.3266E+00  0.3266E+00
     12.372  0.0000E+00  0.0000E+00  0.3266E+00  0.3266E+00
     12.607  0.0000E+00  0.0000E+00  0.3266E+00  0.3266E+00
     12.841  0.2146E-01  0.0000E+00  0.3367E+00  0.3266E+00
     13.075  0.0000E+00  0.0000E+00  0.3367E+00  0.3266E+00
     13.309  0.0000E+00  0.2146E-01  0.3367E+00  0.3367E+00
     13.543  0.0000E+00  0.0000E+00  0.3367E+00  0.3367E+00
     13.778  0.0000E+00  0.0000E+00  0.3367E+00  0.3367E+00
     14.012  0.0000E+00  0.0000E+00  0.3367E+00  0.3367E+00
     14.246  0.0000E+00  0.0000E+00  0.3367E+00  0.3367E+00
     14.480  0.0000E+00  0.0000E+00  0.3367E+00  0.3367E+00
     14.714  0.0000E+00  0.0000E+00  0.3417E+00  0.3367E+00
     14.949  0.0000E+00  0.0000E+00  0.3417E+00  0.3367E+00
     15.183  0.0000E+00  0.1066E-01  0.3417E+00  0.3392E+00
     15.417  0.0000E+00  0.0000E+00  0.3467E+00  0.3417E+00
     15.651  0.0000E+00  0.0000E+00  0.3467E+00  0.3417E+00
     15.885  0.0000E+00  0.3579E-02  0.3467E+00  0.3425E+00
     16.120  0.2146E-01  0.0000E+00  0.3518E+00  0.3467E+00
     16.354  0.2141E-01  0.0000E+00  0.3568E+00  0.3467E+00
     16.588  0.0000E+00  0.0000E+00  0.3568E+00  0.3467E+00
     16.822  0.0000E+00  0.2469E-02  0.3568E+00  0.3473E+00
     17.056  0.2140E-01  0.0000E+00  0.3618E+00  0.3568E+00
     17.291  0.0000E+00  0.0000E+00  0.3618E+00  0.3568E+00
     17.525  0.0000E+00  0.0000E+00  0.3618E+00  0.3568E+00
     17.759  0.0000E+00  0.0000E+00  0.3618E+00  0.3618E+00
     17.993  0.0000E+00  0.0000E+00  0.3618E+00  0.3618E+00
     18.227  0.0000E+00  0.0000E+00  0.3618E+00  0.3618E+00
     18.462  0.0000E+00  0.0000E+00  0.3618E+00  0.3618E+00
     18.696  0.0000E+00  0.0000E+00  0.3618E+00  0.3618E+00
     18.930  0.0000E+00  0.0000E+00  0.3618E+00  0.3618E+00
     19.164  0.0000E+00  0.0000E+00  0.3618E+00  0.3618E+00
     19.398  0.0000E+00  0.0000E+00  0.3618E+00  0.3618E+00
     19.632  0.0000E+00  0.0000E+00  0.3618E+00  0.3618E+00
     19.867  0.0000E+00  0.0000E+00  0.3618E+00  0.3618E+00
     20.101  0.0000E+00  0.0000E+00  0.3618E+00  0.3618E+00
     20.335  0.0000E+00  0.0000E+00  0.3618E+00  0.3618E+00
     20.569  0.0000E+00  0.0000E+00  0.3618E+00  0.3618E+00
     20.803  0.0000E+00  0.0000E+00  0.3618E+00  0.3618E+00
     20.80346344    -49.45540161  301      4.46827732      1.00000000
    -49.455  0.0000E+00  0.0000E+00  0.0000E+00  0.0000E+00  0.0000E+00  0.0000E+00  0.0000E+00  0.0000E+00  0.0000E+00  0.0000E+00  0.0000E+00  0.0000E+00  0.0000E+00  0.0000E+00  0.0000E+00  0.0000E+00  0.0000E+00  0.0000E+00
    -49.221  0.0000E+00  0.0000E+00  0.0000E+00  0.0000E+00  0.0000E+00  0.0000E+00  0.0000E+00  0.0000E+00  0.0000E+00  0.0000E+00  0.0000E+00  0.0000E+00  0.0000E+00  0.0000E+00  0.0000E+00  0.0000E+00  0.0000E+00  0.0000E+00
    -48.987  0.0000E+00  0.0000E+00  0.0000E+00  0.0000E+00  0.0000E+00  0.0000E+00  0.0000E+00  0.0000E+00  0.0000E+00  0.0000E+00  0.0000E+00  0.0000E+00  0.0000E+00  0.0000E+00  0.0000E+00  0.0000E+00  0.0000E+00  0.0000E+00
    -48.753  0.0000E+00  0.0000E+00  0.0000E+00  0.0000E+00  0.0000E+00  0.0000E+00  0.0000E+00  0.0000E+00  0.0000E+00  0.0000E+00  0.0000E+00  0.0000E+00  0.0000E+00  0.0000E+00  0.0000E+00  0.0000E+00  0.0000E+00  0.0000E+00
    -48.519  0.0000E+00  0.0000E+00  0.0000E+00  0.0000E+00  0.0000E+00  0.0000E+00  0.0000E+00  0.0000E+00  0.0000E+00  0.0000E+00  0.0000E+00  0.0000E+00  0.0000E+00  0.0000E+00  0.0000E+00  0.0000E+00  0.0000E+00  0.0000E+00
    -48.284  0.0000E+00  0.0000E+00  0.0000E+00  0.0000E+00  0.0000E+00  0.0000E+00  0.0000E+00  0.0000E+00  0.0000E+00  0.0000E+00  0.0000E+00  0.0000E+00  0.0000E+00  0.0000E+00  0.0000E+00  0.0000E+00  0.0000E+00  0.0000E+00
    -48.050  0.0000E+00  0.0000E+00  0.0000E+00  0.0000E+00  0.0000E+00  0.0000E+00  0.0000E+00  0.0000E+00  0.0000E+00  0.0000E+00  0.0000E+00  0.0000E+00  0.0000E+00  0.0000E+00  0.0000E+00  0.0000E+00  0.0000E+00  0.0000E+00
    -47.816  0.0000E+00  0.0000E+00  0.0000E+00  0.0000E+00  0.0000E+00  0.0000E+00  0.0000E+00  0.0000E+00  0.0000E+00  0.0000E+00  0.0000E+00  0.0000E+00  0.0000E+00  0.0000E+00  0.0000E+00  0.0000E+00  0.0000E+00  0.0000E+00
    -47.582  0.0000E+00  0.0000E+00  0.0000E+00  0.0000E+00  0.0000E+00  0.0000E+00  0.0000E+00  0.0000E+00  0.0000E+00  0.0000E+00  0.0000E+00  0.0000E+00  0.0000E+00  0.0000E+00  0.0000E+00  0.0000E+00  0.0000E+00  0.0000E+00
    -47.348  0.0000E+00  0.0000E+00  0.0000E+00  0.0000E+00  0.0000E+00  0.0000E+00  0.0000E+00  0.0000E+00  0.0000E+00  0.0000E+00  0.0000E+00  0.0000E+00  0.0000E+00  0.0000E+00  0.0000E+00  0.0000E+00  0.0000E+00  0.0000E+00
    -47.113  0.0000E+00  0.0000E+00  0.0000E+00  0.0000E+00  0.0000E+00  0.0000E+00  0.0000E+00  0.0000E+00  0.0000E+00  0.0000E+00  0.0000E+00  0.0000E+00  0.0000E+00  0.0000E+00  0.0000E+00  0.0000E+00  0.0000E+00  0.0000E+00
    -46.879  0.0000E+00  0.0000E+00  0.0000E+00  0.0000E+00  0.0000E+00  0.0000E+00  0.0000E+00  0.0000E+00  0.0000E+00  0.0000E+00  0.0000E+00  0.0000E+00  0.0000E+00  0.0000E+00  0.0000E+00  0.0000E+00  0.0000E+00  0.0000E+00
    -46.645  0.0000E+00  0.0000E+00  0.0000E+00  0.0000E+00  0.0000E+00  0.0000E+00  0.0000E+00  0.0000E+00  0.0000E+00  0.0000E+00  0.0000E+00  0.0000E+00  0.0000E+00  0.0000E+00  0.0000E+00  0.0000E+00  0.0000E+00  0.0000E+00
    -46.411  0.0000E+00  0.0000E+00  0.0000E+00  0.0000E+00  0.0000E+00  0.0000E+00  0.0000E+00  0.0000E+00  0.0000E+00  0.0000E+00  0.0000E+00  0.0000E+00  0.0000E+00  0.0000E+00  0.0000E+00  0.0000E+00  0.0000E+00  0.0000E+00
    -46.177  0.2963E-04  0.0000E+00  0.8757E+00  0.0000E+00  0.1229E+01  0.0000E+00  0.6730E-01  0.0000E+00  0.3329E-06  0.0000E+00  0.2669E-04  0.0000E+00  0.8195E-05  0.0000E+00  0.2000E-05  0.0000E+00  0.9573E-05  0.0000E+00
    -45.942  0.7637E-05  0.0000E+00  0.2524E+01  0.0000E+00  0.1713E+01  0.0000E+00  0.1158E-10  0.0000E+00  0.5647E-13  0.0000E+00  0.1620E-04  0.0000E+00  0.4453E-05  0.0000E+00  0.4523E-13  0.0000E+00  0.3012E-04  0.0000E+00
    -45.708  0.0000E+00  0.0000E+00  0.0000E+00  0.0000E+00  0.0000E+00  0.0000E+00  0.0000E+00  0.0000E+00  0.0000E+00  0.0000E+00  0.0000E+00  0.0000E+00  0.0000E+00  0.0000E+00  0.0000E+00  0.0000E+00  0.0000E+00  0.0000E+00
    -45.474  0.0000E+00  0.0000E+00  0.0000E+00  0.0000E+00  0.0000E+00  0.0000E+00  0.0000E+00  0.0000E+00  0.0000E+00  0.0000E+00  0.0000E+00  0.0000E+00  0.0000E+00  0.0000E+00  0.0000E+00  0.0000E+00  0.0000E+00  0.0000E+00
    -45.240  0.0000E+00  0.0000E+00  0.0000E+00  0.0000E+00  0.0000E+00  0.0000E+00  0.0000E+00  0.0000E+00  0.0000E+00  0.0000E+00  0.0000E+00  0.0000E+00  0.0000E+00  0.0000E+00  0.0000E+00  0.0000E+00  0.0000E+00  0.0000E+00
    -45.006  0.0000E+00  0.0000E+00  0.0000E+00  0.0000E+00  0.0000E+00  0.0000E+00  0.0000E+00  0.0000E+00  0.0000E+00  0.0000E+00  0.0000E+00  0.0000E+00  0.0000E+00  0.0000E+00  0.0000E+00  0.0000E+00  0.0000E+00  0.0000E+00
    -44.771  0.0000E+00  0.0000E+00  0.0000E+00  0.0000E+00  0.0000E+00  0.0000E+00  0.0000E+00  0.0000E+00  0.0000E+00  0.0000E+00  0.0000E+00  0.0000E+00  0.0000E+00  0.0000E+00  0.0000E+00  0.0000E+00  0.0000E+00  0.0000E+00
    -44.537  0.0000E+00  0.0000E+00  0.0000E+00  0.0000E+00  0.0000E+00  0.0000E+00  0.0000E+00  0.0000E+00  0.0000E+00  0.0000E+00  0.0000E+00  0.0000E+00  0.0000E+00  0.0000E+00  0.0000E+00  0.0000E+00  0.0000E+00  0.0000E+00
    -44.303  0.0000E+00  0.0000E+00  0.0000E+00  0.0000E+00  0.0000E+00  0.0000E+00  0.0000E+00  0.0000E+00  0.0000E+00  0.0000E+00  0.0000E+00  0.0000E+00  0.0000E+00  0.0000E+00  0.0000E+00  0.0000E+00  0.0000E+00  0.0000E+00
    -44.069  0.0000E+00  0.0000E+00  0.0000E+00  0.0000E+00  0.0000E+00  0.0000E+00  0.0000E+00  0.0000E+00  0.0000E+00  0.0000E+00  0.0000E+00  0.0000E+00  0.0000E+00  0.0000E+00  0.0000E+00  0.0000E+00  0.0000E+00  0.0000E+00
    -43.835  0.0000E+00  0.0000E+00  0.0000E+00  0.0000E+00  0.0000E+00  0.0000E+00  0.0000E+00  0.0000E+00  0.0000E+00  0.0000E+00  0.0000E+00  0.0000E+00  0.0000E+00  0.0000E+00  0.0000E+00  0.0000E+00  0.0000E+00  0.0000E+00
    -43.600  0.0000E+00  0.3154E-13  0.0000E+00  0.7625E-12  0.0000E+00  0.5496E-11  0.0000E+00  0.2980E+00  0.0000E+00  0.2170E-05  0.0000E+00  0.5654E-14  0.0000E+00  0.1566E-14  0.0000E+00  0.9580E-05  0.0000E+00  0.3049E-14
    -43.366  0.0000E+00  0.0000E+00  0.0000E+00  0.0000E+00  0.0000E+00  0.0000E+00  0.0000E+00  0.0000E+00  0.0000E+00  0.0000E+00  0.0000E+00  0.0000E+00  0.0000E+00  0.0000E+00  0.0000E+00  0.0000E+00  0.0000E+00  0.0000E+00
    -43.132  0.0000E+00  0.0000E+00  0.0000E+00  0.0000E+00  0.0000E+00  0.0000E+00  0.0000E+00  0.0000E+00  0.0000E+00  0.0000E+00  0.0000E+00  0.0000E+00  0.0000E+00  0.0000E+00  0.0000E+00  0.0000E+00  0.0000E+00  0.0000E+00
    -42.898  0.0000E+00  0.3665E-04  0.0000E+00  0.1553E+01  0.0000E+00  0.2143E+01  0.0000E+00  0.4904E-10  0.0000E+00  0.4661E-13  0.0000E+00  0.6287E-04  0.0000E+00  0.1504E-04  0.0000E+00  0.3261E-13  0.0000E+00  0.3406E-04
    -42.664  0.0000E+00  0.0000E+00  0.0000E+00  0.0000E+00  0.0000E+00  0.0000E+00  0.0000E+00  0.0000E+00  0.0000E+00  0.0000E+00  0.0000E+00  0.0000E+00  0.0000E+00  0.0000E+00  0.0000E+00  0.0000E+00  0.0000E+00  0.0000E+00
    -42.430  0.0000E+00  0.0000E+00  0.0000E+00  0.0000E+00  0.0000E+00  0.0000E+00  0.0000E+00  0.0000E+00  0.0000E+00  0.0000E+00  0.0000E+00  0.0000E+00  0.0000E+00  0.0000E+00  0.0000E+00  0.0000E+00  0.0000E+00  0.0000E+00
    -42.195  0.0000E+00  0.0000E+00  0.0000E+00  0.0000E+00  0.0000E+00  0.0000E+00  0.0000E+00  0.0000E+00  0.0000E+00  0.0000E+00  0.0000E+00  0.0000E+00  0.0000E+00  0.0000E+00  0.0000E+00  0.0000E+00  0.0000E+00  0.0000E+00
    -41.961  0.0000E+00  0.0000E+00  0.0000E+00  0.0000E+00  0.0000E+00  0.0000E+00  0.0000E+00  0.0000E+00  0.0000E+00  0.0000E+00  0.0000E+00  0.0000E+00  0.0000E+00  0.0000E+00  0.0000E+00  0.0000E+00  0.0000E+00  0.0000E+00
    -41.727  0.0000E+00  0.0000E+00  0.0000E+00  0.0000E+00  0.0000E+00  0.0000E+00  0.0000E+00  0.0000E+00  0.0000E+00  0.0000E+00  0.0000E+00  0.0000E+00  0.0000E+00  0.0000E+00  0.0000E+00  0.0000E+00  0.0000E+00  0.0000E+00
    -41.493  0.0000E+00  0.0000E+00  0.0000E+00  0.0000E+00  0.0000E+00  0.0000E+00  0.0000E+00  0.0000E+00  0.0000E+00  0.0000E+00  0.0000E+00  0.0000E+00  0.0000E+00  0.0000E+00  0.0000E+00  0.0000E+00  0.0000E+00  0.0000E+00
    -41.259  0.0000E+00  0.0000E+00  0.0000E+00  0.0000E+00  0.0000E+00  0.0000E+00  0.0000E+00  0.0000E+00  0.0000E+00  0.0000E+00  0.0000E+00  0.0000E+00  0.0000E+00  0.0000E+00  0.0000E+00  0.0000E+00  0.0000E+00  0.0000E+00
    -41.024  0.0000E+00  0.0000E+00  0.0000E+00  0.0000E+00  0.0000E+00  0.0000E+00  0.0000E+00  0.0000E+00  0.0000E+00  0.0000E+00  0.0000E+00  0.0000E+00  0.0000E+00  0.0000E+00  0.0000E+00  0.0000E+00  0.0000E+00  0.0000E+00
    -40.790  0.0000E+00  0.0000E+00  0.0000E+00  0.0000E+00  0.0000E+00  0.0000E+00  0.0000E+00  0.0000E+00  0.0000E+00  0.0000E+00  0.0000E+00  0.0000E+00  0.0000E+00  0.0000E+00  0.0000E+00  0.0000E+00  0.0000E+00  0.0000E+00
    -40.556  0.0000E+00  0.0000E+00  0.0000E+00  0.0000E+00  0.0000E+00  0.0000E+00  0.0000E+00  0.0000E+00  0.0000E+00  0.0000E+00  0.0000E+00  0.0000E+00  0.0000E+00  0.0000E+00  0.0000E+00  0.0000E+00  0.0000E+00  0.0000E+00
    -40.322  0.0000E+00  0.0000E+00  0.0000E+00  0.0000E+00  0.0000E+00  0.0000E+00  0.0000E+00  0.0000E+00  0.0000E+00  0.0000E+00  0.0000E+00  0.0000E+00  0.0000E+00  0.0000E+00  0.0000E+00  0.0000E+00  0.0000E+00  0.0000E+00
    -40.088  0.0000E+00  0.0000E+00  0.0000E+00  0.0000E+00  0.0000E+00  0.0000E+00  0.0000E+00  0.0000E+00  0.0000E+00  0.0000E+00  0.0000E+00  0.0000E+00  0.0000E+00  0.0000E+00  0.0000E+00  0.0000E+00  0.0000E+00  0.0000E+00
    -39.853  0.0000E+00  0.0000E+00  0.0000E+00  0.0000E+00  0.0000E+00  0.0000E+00  0.0000E+00  0.0000E+00  0.0000E+00  0.0000E+00  0.0000E+00  0.0000E+00  0.0000E+00  0.0000E+00  0.0000E+00  0.0000E+00  0.0000E+00  0.0000E+00
    -39.619  0.0000E+00  0.0000E+00  0.0000E+00  0.0000E+00  0.0000E+00  0.0000E+00  0.0000E+00  0.0000E+00  0.0000E+00  0.0000E+00  0.0000E+00  0.0000E+00  0.0000E+00  0.0000E+00  0.0000E+00  0.0000E+00  0.0000E+00  0.0000E+00
    -39.385  0.0000E+00  0.0000E+00  0.0000E+00  0.0000E+00  0.0000E+00  0.0000E+00  0.0000E+00  0.0000E+00  0.0000E+00  0.0000E+00  0.0000E+00  0.0000E+00  0.0000E+00  0.0000E+00  0.0000E+00  0.0000E+00  0.0000E+00  0.0000E+00
    -39.151  0.0000E+00  0.0000E+00  0.0000E+00  0.0000E+00  0.0000E+00  0.0000E+00  0.0000E+00  0.0000E+00  0.0000E+00  0.0000E+00  0.0000E+00  0.0000E+00  0.0000E+00  0.0000E+00  0.0000E+00  0.0000E+00  0.0000E+00  0.0000E+00
    -38.917  0.0000E+00  0.0000E+00  0.0000E+00  0.0000E+00  0.0000E+00  0.0000E+00  0.0000E+00  0.0000E+00  0.0000E+00  0.0000E+00  0.0000E+00  0.0000E+00  0.0000E+00  0.0000E+00  0.0000E+00  0.0000E+00  0.0000E+00  0.0000E+00
    -38.682  0.0000E+00  0.0000E+00  0.0000E+00  0.0000E+00  0.0000E+00  0.0000E+00  0.0000E+00  0.0000E+00  0.0000E+00  0.0000E+00  0.0000E+00  0.0000E+00  0.0000E+00  0.0000E+00  0.0000E+00  0.0000E+00  0.0000E+00  0.0000E+00
    -38.448  0.0000E+00  0.0000E+00  0.0000E+00  0.0000E+00  0.0000E+00  0.0000E+00  0.0000E+00  0.0000E+00  0.0000E+00  0.0000E+00  0.0000E+00  0.0000E+00  0.0000E+00  0.0000E+00  0.0000E+00  0.0000E+00  0.0000E+00  0.0000E+00
    -38.214  0.0000E+00  0.0000E+00  0.0000E+00  0.0000E+00  0.0000E+00  0.0000E+00  0.0000E+00  0.0000E+00  0.0000E+00  0.0000E+00  0.0000E+00  0.0000E+00  0.0000E+00  0.0000E+00  0.0000E+00  0.0000E+00  0.0000E+00  0.0000E+00
    -37.980  0.0000E+00  0.0000E+00  0.0000E+00  0.0000E+00  0.0000E+00  0.0000E+00  0.0000E+00  0.0000E+00  0.0000E+00  0.0000E+00  0.0000E+00  0.0000E+00  0.0000E+00  0.0000E+00  0.0000E+00  0.0000E+00  0.0000E+00  0.0000E+00
    -37.746  0.0000E+00  0.0000E+00  0.0000E+00  0.0000E+00  0.0000E+00  0.0000E+00  0.0000E+00  0.0000E+00  0.0000E+00  0.0000E+00  0.0000E+00  0.0000E+00  0.0000E+00  0.0000E+00  0.0000E+00  0.0000E+00  0.0000E+00  0.0000E+00