   12   12  199    2
  0.1050332E+02  0.2916331E-09  0.4580966E-09  0.9434393E-09  0.5000000E-15
  1.000000000000000E-004
  CAR 
 unknown system                          
    100      1     72
 
  0.0000000E+00  0.0000000E+00  0.0000000E+00  0.1000000E+01
    1      -46.261817    -43.593850   1.000000   1.000000
    2      -46.260443    -43.590431   1.000000   1.000000
    3      -46.248380    -43.588032   1.000000   1.000000
    4      -46.246495    -43.584654   1.000000   1.000000
    5      -46.164554    -42.991157   1.000000   1.000000
    6      -46.161576    -42.978030   1.000000   1.000000
    7      -46.159584    -42.971381   1.000000   1.000000
    8      -46.156691    -42.957574   1.000000   1.000000
    9      -45.975375    -42.904314   1.000000   1.000000
   10      -45.974252    -42.901568   1.000000   1.000000
   11      -45.970764    -42.883600   1.000000   1.000000
   12      -45.970605    -42.881043   1.000000   1.000000
   13      -15.642549    -15.421025   1.000000   1.000000
   14      -15.141867    -14.955578   1.000000   1.000000
   15      -15.047147    -14.758456   1.000000   1.000000
   16      -14.500378    -14.234260   1.000000   1.000000
   17      -13.439996    -13.295286   1.000000   1.000000
   18      -13.434092    -13.270947   1.000000   1.000000
   19      -13.390415    -13.199072   1.000000   1.000000
   20      -13.358461    -13.164645   1.000000   1.000000
   21       -2.888793     -2.256168   1.000000   1.000000
   22       -2.774619     -2.155115   1.000000   1.000000
   23       -2.715500     -2.040979   1.000000   1.000000
   24       -2.498613     -1.868020   1.000000   1.000000
   25       -1.953153     -1.249001   1.000000   1.000000
   26       -1.929581     -1.183297   1.000000   1.000000
   27       -1.892135     -1.160686   1.000000   1.000000
   28       -1.811301     -1.064847   1.000000   1.000000
   29       -1.462309     -0.787658   1.000000   1.000000
   30       -1.311723     -0.675128   1.000000   1.000000
   31       -1.249528     -0.595021   1.000000   1.000000
   32       -0.854719     -0.004127   1.000000   1.000000
   33       -0.015651      0.978468   1.000000   1.000000
   34        0.337045      1.071421   1.000000   1.000000
   35        0.385253      1.091883   1.000000   1.000000
   36        0.418058      1.197644   1.000000   1.000000
   37        0.838982      1.365224   1.000000   1.000000
   38        0.909670      1.524671   1.000000   1.000000
   39        1.032315      1.571243   1.000000   1.000000
   40        1.067658      1.897190   1.000000   1.000000
   41        1.198685      2.351477   1.000000   1.000000
   42        1.567380      2.375328   1.000000   1.000000
   43        1.748582      2.429328   1.000000   1.000000
   44        1.943161      3.197547   1.000000   1.000000
   45        1.986991      4.892909   1.000000   0.000000
   46        2.045869      5.160807   1.000000   0.000000
   47        2.892384      5.302954   1.000000   0.000000
   48        3.009647      5.520376   1.000000   0.000000
   49        3.402977      6.070008   1.000000   0.000000
   50        3.463036      6.084190   1.000000   0.000000
   51        3.596618      6.110716   1.000000   0.000000
   52        3.629458      6.141961   1.000000   0.000000
   53        3.808194      6.198834   1.000000   0.000000
   54        3.916476      6.207434   1.000000   0.000000
   55        4.149651      6.326858   1.000000   0.000000
   56        4.254214      6.668317   1.000000   0.000000
   57        5.597459      7.071793   0.000000   0.000000
   58        5.731005      7.347523   0.000000   0.000000
   59        6.166810      7.637301   0.000000   0.000000
   60        6.574995      7.821945   0.000000   0.000000
   61        7.230821      8.483373   0.000000   0.000000
   62        7.321206      8.604110   0.000000   0.000000
   63        7.570443      8.821495   0.000000   0.000000
   64        7.572897      8.844282   0.000000   0.000000
   65       10.544845     11.066946   0.000000   0.000000
   66       12.708747     13.170721   0.000000   0.000000
   67       12.788330     13.247173   0.000000   0.000000
   68       14.554833     15.182808   0.000000   0.000000
   69       15.283329     15.892180   0.000000   0.000000
   70       16.091514     16.830871   0.000000   0.000000
   71       16.333551     16.839533   0.000000   0.000000
   72       17.036655     17.609879   0.000000   0.000000
