 vasp.5.4.4.18Apr17-6-g9f103f2a35 (build Nov 08 2022 17:27:33) complex          
  
 executed on             LinuxIFC date 2022.11.22  17:13:32
 running on   16 total cores
 distrk:  each k-point on   16 cores,    1 groups
 distr:  one band on NCORES_PER_BAND=   4 cores,    4 groups


--------------------------------------------------------------------------------------------------------


 INCAR:
 POTCAR:    PAW_PBE Mn_pv 02Aug2007               
 POTCAR:    PAW_PBE O 08Apr2002                   
 POTCAR:    PAW_PBE Mn_pv 02Aug2007               
   VRHFIN =Mn: 3p4s3d                                                           
   LEXCH  = PE                                                                  
   EATOM  =  2025.2664 eV,  148.8529 Ry                                         
                                                                                
   TITEL  = PAW_PBE Mn_pv 02Aug2007                                             
   LULTRA =        F    use ultrasoft PP ?                                      
   IUNSCR =        1    unscreen: 0-lin 1-nonlin 2-no                           
   RPACOR =    2.080    partial core radius                                     
   POMASS =   54.938; ZVAL   =   13.000    mass and valenz                      
   RCORE  =    2.300    outmost cutoff radius                                   
   RWIGS  =    2.500; RWIGS  =    1.323    wigner-seitz radius (au A)           
   ENMAX  =  269.864; ENMIN  =  202.398 eV                                      
   ICORE  =        3    local potential                                         
   LCOR   =        T    correct aug charges                                     
   LPAW   =        T    paw PP                                                  
   EAUG   =  569.085                                                            
   DEXC   =    0.000                                                            
   RMAX   =    2.343    core radius for proj-oper                               
   RAUG   =    1.300    factor for augmentation sphere                          
   RDEP   =    2.338    radius for radial grids                                 
   RDEPT  =    1.798    core radius for aug-charge                              
                                                                                
   Atomic configuration                                                         
    8 entries                                                                   
     n  l   j            E        occ.                                          
     1  0  0.50     -6424.8287   2.0000                                         
     2  0  0.50      -739.1154   2.0000                                         
     2  1  1.50      -625.3949   6.0000                                         
     3  0  0.50       -81.6100   2.0000                                         
     3  1  1.50       -50.4667   6.0000                                         
     3  2  2.50        -3.3745   6.0000                                         
     4  0  0.50        -4.1331   1.0000                                         
     4  3  2.50        -1.3606   0.0000                                         
   Description                                                                  
     l       E           TYP  RCUT    TYP  RCUT                                 
     1    -50.4666628     23  2.000                                             
     1     -1.3605826     23  2.000                                             
     2     -3.3744729     23  2.300                                             
     2     -4.7350555     23  2.300                                             
     0     -4.1331431     23  2.300                                             
     0      7.6656591     23  2.300                                             
     3      9.5240782     23  2.300                                             
  local pseudopotential read in
  partial core-charges read in
  partial kinetic energy density read in
  atomic valenz-charges read in
  non local Contribution for L=           1  read in
    real space projection operators read in
  non local Contribution for L=           1  read in
    real space projection operators read in
  non local Contribution for L=           2  read in
    real space projection operators read in
  non local Contribution for L=           2  read in
    real space projection operators read in
  non local Contribution for L=           0  read in
    real space projection operators read in
  non local Contribution for L=           0  read in
    real space projection operators read in
    PAW grid and wavefunctions read in
 
   number of l-projection  operators is LMAX  =           6
   number of lm-projection operators is LMMAX =          18
 
 POTCAR:    PAW_PBE O 08Apr2002                   
   VRHFIN =O: s2p4                                                              
   LEXCH  = PE                                                                  
   EATOM  =   432.3788 eV,   31.7789 Ry                                         
                                                                                
   TITEL  = PAW_PBE O 08Apr2002                                                 
   LULTRA =        F    use ultrasoft PP ?                                      
   IUNSCR =        1    unscreen: 0-lin 1-nonlin 2-no                           
   RPACOR =    1.200    partial core radius                                     
   POMASS =   16.000; ZVAL   =    6.000    mass and valenz                      
   RCORE  =    1.520    outmost cutoff radius                                   
   RWIGS  =    1.550; RWIGS  =    0.820    wigner-seitz radius (au A)           
   ENMAX  =  400.000; ENMIN  =  300.000 eV                                      
   ICORE  =        2    local potential                                         
   LCOR   =        T    correct aug charges                                     
   LPAW   =        T    paw PP                                                  
   EAUG   =  605.392                                                            
   DEXC   =    0.000                                                            
   RMAX   =    1.553    core radius for proj-oper                               
   RAUG   =    1.300    factor for augmentation sphere                          
   RDEP   =    1.550    radius for radial grids                                 
   RDEPT  =    1.329    core radius for aug-charge                              
                                                                                
   Atomic configuration                                                         
    4 entries                                                                   
     n  l   j            E        occ.                                          
     1  0  0.50      -514.6923   2.0000                                         
     2  0  0.50       -23.9615   2.0000                                         
     2  1  0.50        -9.0305   4.0000                                         
     3  2  1.50        -9.5241   0.0000                                         
   Description                                                                  
     l       E           TYP  RCUT    TYP  RCUT                                 
     0    -23.9615318     23  1.200                                             
     0     -9.5240782     23  1.200                                             
     1     -9.0304911     23  1.520                                             
     1      8.1634956     23  1.520                                             
     2     -9.5240782      7  1.500                                             
  local pseudopotential read in
  partial core-charges read in
  partial kinetic energy density read in
  kinetic energy density of atom read in
  atomic valenz-charges read in
  non local Contribution for L=           0  read in
    real space projection operators read in
  non local Contribution for L=           0  read in
    real space projection operators read in
  non local Contribution for L=           1  read in
    real space projection operators read in
  non local Contribution for L=           1  read in
    real space projection operators read in
    PAW grid and wavefunctions read in
 
   number of l-projection  operators is LMAX  =           4
   number of lm-projection operators is LMMAX =           8
 
 Optimization of the real space projectors (new method)

 maximal supplied QI-value         = 16.25
 optimisation between [QCUT,QGAM] = [ 10.24, 20.48] = [ 29.35,117.42] Ry 
 Optimized for a Real-space Cutoff    1.46 Angstroem

   l    n(q)    QCUT    max X(q) W(low)/X(q) W(high)/X(q)  e(spline) 
   1      8    10.239     3.658    0.66E-04    0.10E-03    0.11E-06
   1      8    10.239     5.612    0.11E-03    0.22E-03    0.22E-06
   2      8    10.239    55.373    0.13E-03    0.13E-03    0.98E-07
   2      8    10.239    50.863    0.13E-03    0.13E-03    0.10E-06
   0      9    10.239    79.536    0.48E-04    0.67E-04    0.69E-07
   0      9    10.239    38.668    0.40E-04    0.61E-04    0.64E-07
 Optimization of the real space projectors (new method)

 maximal supplied QI-value         = 24.76
 optimisation between [QCUT,QGAM] = [ 10.15, 20.30] = [ 28.85,115.39] Ry 
 Optimized for a Real-space Cutoff    1.51 Angstroem

   l    n(q)    QCUT    max X(q) W(low)/X(q) W(high)/X(q)  e(spline) 
   0      9    10.150    20.381    0.17E-03    0.18E-03    0.41E-06
   0      9    10.150    15.268    0.18E-03    0.20E-03    0.43E-06
   1      9    10.150     5.964    0.16E-03    0.20E-03    0.36E-06
   1      9    10.150     5.382    0.13E-03    0.16E-03    0.33E-06
  PAW_PBE Mn_pv 02Aug2007               :
 energy of atom  1       EATOM=-2025.2664
 kinetic energy error for atom=    0.0284 (will be added to EATOM!!)
  PAW_PBE O 08Apr2002                   :
 energy of atom  2       EATOM= -432.3788
 kinetic energy error for atom=    0.1156 (will be added to EATOM!!)
 
 
 POSCAR: Mn4 O8                                  
  positions in direct lattice
  No initial velocities read in
 exchange correlation table for  LEXCH =        8
   RHO(1)=    0.500       N(1)  =     2000
   RHO(2)=  100.500       N(2)  =     4000

 VTST: version 3.2, (02/03/18)

 CHAIN: initializing optimizer
 
 OPT: Using VASP Conjugate-Gradient optimizer
 CHAIN: Read ICHAIN            0
 
 POSCAR: Mn4 O8                                  
  positions in direct lattice
  No initial velocities read in
 


--------------------------------------------------------------------------------------------------------


 ion  position               nearest neighbor table
   1  0.250  0.021  0.865-  12 1.91  12 1.91  10 1.92   6 1.94   6 1.94   7 1.94   2 2.94   2 2.94

   2  0.750  0.979  0.135-   9 1.91   9 1.91  11 1.92   7 1.94   7 1.94   6 1.94   1 2.94   1 2.94

   3  0.750  0.521  0.635-  10 1.91  10 1.91  12 1.92   5 1.94   5 1.94   8 1.94   4 2.94   4 2.94

   4  0.250  0.479  0.365-  11 1.91  11 1.91   9 1.92   8 1.94   8 1.94   5 1.94   3 2.94   3 2.94

   5  0.250  0.712  0.537-   3 1.94   3 1.94   4 1.94
   6  0.750  0.212  0.963-   1 1.94   1 1.94   2 1.94
   7  0.250  0.788  0.037-   2 1.94   2 1.94   1 1.94
   8  0.750  0.288  0.463-   4 1.94   4 1.94   3 1.94
   9  0.250  0.191  0.216-   2 1.91   2 1.91   4 1.92
  10  0.250  0.309  0.716-   3 1.91   3 1.91   1 1.92
  11  0.750  0.691  0.284-   4 1.91   4 1.91   2 1.92
  12  0.750  0.809  0.784-   1 1.91   1 1.91   3 1.92
 

IMPORTANT INFORMATION: All symmetrisations will be switched off!
NOSYMM: (Re-)initialisation of all symmetry stuff for point group C_1.

 
 
 KPOINTS: Default gamma                           

Automatic generation of k-mesh.
Space group operators:
 irot       det(A)        alpha          n_x          n_y          n_z        tau_x        tau_y        tau_z
    1     1.000000     0.000000     1.000000     0.000000     0.000000     0.000000     0.000000     0.000000
 
 Subroutine IBZKPT returns following result:
 ===========================================
 
 Found      1 irreducible k-points:
 
 Following reciprocal coordinates:
            Coordinates               Weight
  0.000000  0.000000  0.000000      1.000000
 
 Following cartesian coordinates:
            Coordinates               Weight
  0.000000  0.000000  0.000000      1.000000
 


--------------------------------------------------------------------------------------------------------




 Dimension of arrays:
   k-points           NKPTS =      1   k-points in BZ     NKDIM =      1   number of bands    NBANDS=     72
   number of dos      NEDOS =    301   number of ions     NIONS =     12
   non local maximal  LDIM  =      6   non local SUM 2l+1 LMDIM =     18
   total plane-waves  NPLWV =  38400
   max r-space proj   IRMAX =   4431   max aug-charges    IRDMAX=   9443
   dimension x,y,z NGX =    20 NGY =   30 NGZ =   64
   dimension x,y,z NGXF=    40 NGYF=   60 NGZF=  128
   support grid    NGXF=    40 NGYF=   60 NGZF=  128
   ions per type =               4   8
   NGX,Y,Z   is equivalent  to a cutoff of  11.40, 10.89, 11.28 a.u.
   NGXF,Y,Z  is equivalent  to a cutoff of  22.80, 21.77, 22.56 a.u.

 SYSTEM =  unknown system                          
 POSCAR =  Mn4 O8                                  

 Startparameter for this run:
   NWRITE =      2    write-flag & timer
   PREC   = accura    normal or accurate (medium, high low for compatibility)
   ISTART =      0    job   : 0-new  1-cont  2-samecut
   ICHARG =      2    charge: 1-file 2-atom 10-const
   ISPIN  =      2    spin polarized calculation?
   LNONCOLLINEAR =      F non collinear calculations
   LSORBIT =      F    spin-orbit coupling
   INIWAV =      1    electr: 0-lowe 1-rand  2-diag
   LASPH  =      T    aspherical Exc in radial PAW
   METAGGA=      F    non-selfconsistent MetaGGA calc.

 Electronic Relaxation 1
   ENCUT  =  400.0 eV  29.40 Ry    5.42 a.u.   4.76  7.47 15.39*2*pi/ulx,y,z
   ENINI  =  400.0     initial cutoff
   ENAUG  =  800.0 eV  augmentation charge cutoff
   NELM   =     40;   NELMIN=  2; NELMDL= -5     # of ELM steps 
   EDIFF  = 0.1E-04   stopping-criterion for ELM
   LREAL  =      T    real-space projection
   NLSPLINE    = F    spline interpolate recip. space projectors
   LCOMPAT=      F    compatible to vasp.4.4
   GGA_COMPAT  = T    GGA compatible to vasp.4.4-vasp.4.6
   LMAXPAW     = -100 max onsite density
   LMAXMIX     =    4 max onsite mixed and CHGCAR
   VOSKOWN=      0    Vosko Wilk Nusair interpolation
   ROPT   =   -0.00025  -0.00025
 Ionic relaxation
   EDIFFG = -.3E-01   stopping-criterion for IOM
   NSW    =    199    number of steps for IOM
   NBLOCK =      1;   KBLOCK =    199    inner block; outer block 
   IBRION =      2    ionic relax: 0-MD 1-quasi-New 2-CG
   NFREE  =      1    steps in history (QN), initial steepest desc. (CG)
   ISIF   =      2    stress and relaxation
   IWAVPR =     11    prediction:  0-non 1-charg 2-wave 3-comb
   ISYM   =      0    0-nonsym 1-usesym 2-fastsym
   LCORR  =      T    Harris-Foulkes like correction to forces

   POTIM  = 0.5000    time-step for ionic-motion
   TEIN   =    0.0    initial temperature
   TEBEG  =    0.0;   TEEND  =   0.0 temperature during run
   SMASS  =  -3.00    Nose mass-parameter (am)
   estimated Nose-frequenzy (Omega)   =  0.10E-29 period in steps =****** mass=  -0.194E-27a.u.
   SCALEE = 1.0000    scale energy and forces
   NPACO  =    256;   APACO  = 16.0  distance and # of slots for P.C.
   PSTRESS=    0.0 pullay stress

  Mass of Ions in am
   POMASS =  54.94 16.00
  Ionic Valenz
   ZVAL   =  13.00  6.00
  Atomic Wigner-Seitz radii
   RWIGS  =  -1.00 -1.00
  virtual crystal weights 
   VCA    =   1.00  1.00
   NELECT =     100.0000    total number of electrons
   NUPDOWN=      -1.0000    fix difference up-down

 DOS related values:
   EMIN   =  10.00;   EMAX   =-10.00  energy-range for DOS
   EFERMI =   0.00
   ISMEAR =     0;   SIGMA  =   0.01  broadening in eV -4-tet -1-fermi 0-gaus

 Electronic relaxation 2 (details)
   IALGO  =     68    algorithm
   LDIAG  =      T    sub-space diagonalisation (order eigenvalues)
   LSUBROT=      F    optimize rotation matrix (better conditioning)
   TURBO    =      0    0=normal 1=particle mesh
   IRESTART =      0    0=no restart 2=restart with 2 vectors
   NREBOOT  =      0    no. of reboots
   NMIN     =      0    reboot dimension
   EREF     =   0.00    reference energy to select bands
   IMIX   =      4    mixing-type and parameters
     AMIX     =   0.40;   BMIX     =  1.00
     AMIX_MAG =   1.60;   BMIX_MAG =  1.00
     AMIN     =   0.10
     WC   =   100.;   INIMIX=   1;  MIXPRE=   1;  MAXMIX= -45

 Intra band minimization:
   WEIMIN = 0.0010     energy-eigenvalue tresh-hold
   EBREAK =  0.35E-07  absolut break condition
   DEPER  =   0.30     relativ break condition  

   TIME   =   0.40     timestep for ELM

  volume/ion in A,a.u.               =      10.50        70.88
  Fermi-wavevector in a.u.,A,eV,Ry     =   1.515557  2.863987 31.251390  2.296912
  Thomas-Fermi vector in A             =   2.625065
 
 Write flags
   LWAVE        =      T    write WAVECAR
   LDOWNSAMPLE  =      F    k-point downsampling of WAVECAR
   LCHARG       =      T    write CHGCAR
   LVTOT        =      F    write LOCPOT, total local potential
   LVHAR        =      F    write LOCPOT, Hartree potential only
   LELF         =      F    write electronic localiz. function (ELF)
   LORBIT       =     11    0 simple, 1 ext, 2 COOP (PROOUT), +10 PAW based schemes


 Dipole corrections
   LMONO  =      F    monopole corrections only (constant potential shift)
   LDIPOL =      F    correct potential (dipole corrections)
   IDIPOL =      0    1-x, 2-y, 3-z, 4-all directions 
   EPSILON=  1.0000000 bulk dielectric constant

 Exchange correlation treatment:
   GGA     =    PE    GGA type
   LEXCH   =     8    internal setting for exchange type
   VOSKOWN=      0    Vosko Wilk Nusair interpolation
   LHFCALC =     F    Hartree Fock is set to
   LHFONE  =     F    Hartree Fock one center treatment
   AEXX    =    0.0000 exact exchange contribution

 Linear response parameters
   LEPSILON=     F    determine dielectric tensor
   LRPA    =     F    only Hartree local field effects (RPA)
   LNABLA  =     F    use nabla operator in PAW spheres
   LVEL    =     F    velocity operator in full k-point grid
   LINTERFAST=   F  fast interpolation
   KINTER  =     0    interpolate to denser k-point grid
   CSHIFT  =0.1000    complex shift for real part using Kramers Kronig
   OMEGAMAX=  -1.0    maximum frequency
   DEG_THRESHOLD= 0.2000000E-02 threshold for treating states as degnerate
   RTIME   =   -0.100 relaxation time in fs
  (WPLASMAI=    0.000 imaginary part of plasma frequency in eV, 0.658/RTIME)
   DFIELD  = 0.0000000 0.0000000 0.0000000 field for delta impulse in time
 
 Orbital magnetization related:
   ORBITALMAG=     F  switch on orbital magnetization
   LCHIMAG   =     F  perturbation theory with respect to B field
   DQ        =  0.001000  dq finite difference perturbation B field
   LLRAUG    =     F  two centre corrections for induced B field



--------------------------------------------------------------------------------------------------------


 conjugate gradient relaxation of ions
 charge density and potential will be updated during run
 spin polarized calculation
 RMM-DIIS sequential band-by-band and
  variant of blocked Davidson during initial phase
 perform sub-space diagonalisation
    before iterative eigenvector-optimisation
 modified Broyden-mixing scheme, WC =      100.0
 initial mixing is a Kerker type mixing with AMIX =  0.4000 and BMIX =      1.0000
 Hartree-type preconditioning will be used
 using additional bands           22
 real space projection scheme for non local part
 use partial core corrections
 calculate Harris-corrections to forces 
   (improved forces if not selfconsistent)
 use gradient corrections 
 use of overlap-Matrix (Vanderbilt PP)
 Gauss-broadening in eV      SIGMA  =   0.01


--------------------------------------------------------------------------------------------------------


  energy-cutoff  :      400.00
  volume of cell :      126.04
      direct lattice vectors                 reciprocal lattice vectors
     2.916331000  0.000000000  0.000000000     0.342896605  0.000000075 -0.000000073
    -0.000001000  4.580966000  0.000145000     0.000000000  0.218294570 -0.000006941
     0.000002000  0.000300000  9.434393000     0.000000000 -0.000003355  0.105995161

  length of vectors
     2.916331000  4.580966002  9.434393005     0.342896605  0.218294570  0.105995161


 
 k-points in units of 2pi/SCALE and weight: Default gamma                           
   0.00000000  0.00000000  0.00000000       1.000
 
 k-points in reciprocal lattice and weights: Default gamma                           
   0.00000000  0.00000000  0.00000000       1.000
 
 position of ions in fractional coordinates (direct lattice) 
   0.25000000  0.02126500  0.86501400
   0.74999900  0.97874100  0.13499200
   0.75000000  0.52131000  0.63496800
   0.25000100  0.47868900  0.36502400
   0.25000000  0.71244700  0.53693000
   0.75000000  0.21232300  0.96305200
   0.25000000  0.78767800  0.03695300
   0.75000000  0.28755100  0.46306600
   0.25000000  0.19132200  0.21631000
   0.25000000  0.30854000  0.71624800
   0.75000000  0.69145800  0.28375200
   0.75000000  0.80867700  0.78369200
 
 position of ions in cartesian coordinates  (Angst):
   0.72908446  0.09767375  8.16088511
   2.18724462  4.48361974  1.27370950
   2.18724900  2.38829388  5.99061324
   0.72908592  2.19296754  3.44384928
   0.72908311  3.26385656  5.06571194
   2.18724996  0.97293336  9.08584183
   0.72908204  3.60833722  0.34874334
   2.18724889  1.31740027  4.36878832
   0.72908299  0.87650447  2.04078129
   0.72908387  1.41362612  6.75740986
   2.18724813  3.16763071  2.67712814
   2.18724901  3.70475695  7.39377558
 


--------------------------------------------------------------------------------------------------------


 k-point  1 :   0.0000 0.0000 0.0000  plane waves:    2297

 maximum and minimum number of plane-waves per node :       576      573

 maximum number of plane-waves:      2297
 maximum index in each direction: 
   IXMAX=    4   IYMAX=    7   IZMAX=   15
   IXMIN=   -4   IYMIN=   -7   IZMIN=  -15


 real space projection operators:
  total allocation   :       4311.56 KBytes
  max/ min on nodes  :       1082.62       1073.16


 parallel 3D FFT for wavefunctions:
    minimum data exchange during FFTs selected (reduces bandwidth)
 parallel 3D FFT for charge:
    minimum data exchange during FFTs selected (reduces bandwidth)


 total amount of memory used by VASP MPI-rank0    36356. kBytes
=======================================================================

   base      :      30000. kBytes
   nonlr-proj:       2229. kBytes
   fftplans  :       1043. kBytes
   grid      :       2639. kBytes
   one-center:         93. kBytes
   wavefun   :        352. kBytes
 
     INWAV:  cpu time    0.0000: real time    0.0000
 Broyden mixing: mesh for mixing (old mesh)
   NGX =  9   NGY = 15   NGZ = 31
  (NGX  = 40   NGY  = 60   NGZ  =128)
  gives a total of   4185 points

 initial charge density was supplied:
 charge density of overlapping atoms calculated
 number of electron     100.0000000 magnetization      24.8000000
 keeping initial charge density in first step


--------------------------------------------------------------------------------------------------------


 Maximum index for non-local projection operator         1072
 Maximum index for augmentation-charges          717 (set IRDMAX)


--------------------------------------------------------------------------------------------------------


 First call to EWALD:  gamma=   0.354
 Maximum number of real-space cells 4x 3x 2
 Maximum number of reciprocal cells 2x 3x 5

    FEWALD:  cpu time    0.0012: real time    0.0012


--------------------------------------- Iteration      1(   1)  ---------------------------------------


    POTLOK:  cpu time    0.0290: real time    0.0355
    SETDIJ:  cpu time    0.4358: real time    0.4363
     EDDAV:  cpu time    0.2203: real time    0.2275
       DOS:  cpu time    0.0005: real time    0.0005
    --------------------------------------------
      LOOP:  cpu time    0.6856: real time    0.6998

 eigenvalue-minimisations  :   296
 total energy-change (2. order) : 0.1239334E+04  (-0.4661814E+04)
 number of electron     100.0000000 magnetization      24.8000000
 augmentation part      100.0000000 magnetization      24.8000000

 Free energy of the ion-electron system (eV)
  ---------------------------------------------------
  alpha Z        PSCENC =       441.37612112
  Ewald energy   TEWEN  =     -7485.64291034
  -Hartree energ DENC   =     -3708.68415669
  -exchange      EXHF   =         0.00000000
  -V(xc)+E(xc)   XCENC  =       505.12844288
  PAW double counting   =      9348.07423200    -9564.46064786
  entropy T*S    EENTRO =        -0.00000000
  eigenvalues    EBANDS =       144.48564611
  atomic energy  EATOM  =     11559.05757976
  Solvation  Ediel_sol  =         0.00000000
  ---------------------------------------------------
  free energy    TOTEN  =      1239.33430697 eV

  energy without entropy =     1239.33430697  energy(sigma->0) =     1239.33430697


--------------------------------------------------------------------------------------------------------




--------------------------------------- Iteration      1(   2)  ---------------------------------------


     EDDAV:  cpu time    0.1851: real time    0.1860
       DOS:  cpu time    0.0002: real time    0.0001
    --------------------------------------------
      LOOP:  cpu time    0.1852: real time    0.1861

 eigenvalue-minimisations  :   296
 total energy-change (2. order) :-0.1210463E+04  (-0.1096870E+04)
 number of electron     100.0000000 magnetization      24.8000000
 augmentation part      100.0000000 magnetization      24.8000000

 Free energy of the ion-electron system (eV)
  ---------------------------------------------------
  alpha Z        PSCENC =       441.37612112
  Ewald energy   TEWEN  =     -7485.64291034
  -Hartree energ DENC   =     -3708.68415669
  -exchange      EXHF   =         0.00000000
  -V(xc)+E(xc)   XCENC  =       505.12844288
  PAW double counting   =      9348.07423200    -9564.46064786
  entropy T*S    EENTRO =        -0.00000000
  eigenvalues    EBANDS =     -1065.97777451
  atomic energy  EATOM  =     11559.05757976
  Solvation  Ediel_sol  =         0.00000000
  ---------------------------------------------------
  free energy    TOTEN  =        28.87088635 eV

  energy without entropy =       28.87088635  energy(sigma->0) =       28.87088635


--------------------------------------------------------------------------------------------------------




--------------------------------------- Iteration      1(   3)  ---------------------------------------


     EDDAV:  cpu time    0.2001: real time    0.2022
       DOS:  cpu time    0.0002: real time    0.0002
    --------------------------------------------
      LOOP:  cpu time    0.2003: real time    0.2024

 eigenvalue-minimisations  :   320
 total energy-change (2. order) :-0.1444496E+03  (-0.1382232E+03)
 number of electron     100.0000000 magnetization      24.8000000
 augmentation part      100.0000000 magnetization      24.8000000

 Free energy of the ion-electron system (eV)
  ---------------------------------------------------
  alpha Z        PSCENC =       441.37612112
  Ewald energy   TEWEN  =     -7485.64291034
  -Hartree energ DENC   =     -3708.68415669
  -exchange      EXHF   =         0.00000000
  -V(xc)+E(xc)   XCENC  =       505.12844288
  PAW double counting   =      9348.07423200    -9564.46064786
  entropy T*S    EENTRO =        -0.00000000
  eigenvalues    EBANDS =     -1210.42737328
  atomic energy  EATOM  =     11559.05757976
  Solvation  Ediel_sol  =         0.00000000
  ---------------------------------------------------
  free energy    TOTEN  =      -115.57871241 eV

  energy without entropy =     -115.57871241  energy(sigma->0) =     -115.57871241


--------------------------------------------------------------------------------------------------------




--------------------------------------- Iteration      1(   4)  ---------------------------------------


     EDDAV:  cpu time    0.1990: real time    0.2009
       DOS:  cpu time    0.0002: real time    0.0002
    --------------------------------------------
      LOOP:  cpu time    0.1992: real time    0.2011

 eigenvalue-minimisations  :   320
 total energy-change (2. order) :-0.4103489E+01  (-0.4082412E+01)
 number of electron     100.0000000 magnetization      24.8000000
 augmentation part      100.0000000 magnetization      24.8000000

 Free energy of the ion-electron system (eV)
  ---------------------------------------------------
  alpha Z        PSCENC =       441.37612112
  Ewald energy   TEWEN  =     -7485.64291034
  -Hartree energ DENC   =     -3708.68415669
  -exchange      EXHF   =         0.00000000
  -V(xc)+E(xc)   XCENC  =       505.12844288
  PAW double counting   =      9348.07423200    -9564.46064786
  entropy T*S    EENTRO =        -0.00000000
  eigenvalues    EBANDS =     -1214.53086270
  atomic energy  EATOM  =     11559.05757976
  Solvation  Ediel_sol  =         0.00000000
  ---------------------------------------------------
  free energy    TOTEN  =      -119.68220183 eV

  energy without entropy =     -119.68220183  energy(sigma->0) =     -119.68220183


--------------------------------------------------------------------------------------------------------




--------------------------------------- Iteration      1(   5)  ---------------------------------------


     EDDAV:  cpu time    0.1888: real time    0.1894
       DOS:  cpu time    0.0002: real time    0.0002
    CHARGE:  cpu time    0.0096: real time    0.0096
    MIXING:  cpu time    0.0011: real time    0.0011
    --------------------------------------------
      LOOP:  cpu time    0.1996: real time    0.2002

 eigenvalue-minimisations  :   304
 total energy-change (2. order) :-0.4316752E-01  (-0.4316119E-01)
 number of electron     100.0000009 magnetization      18.5073554
 augmentation part       31.4038140 magnetization      14.2122226

 Broyden mixing:
  rms(total) = 0.65411E+01    rms(broyden)= 0.65358E+01
  rms(prec ) = 0.75757E+01
  weight for this iteration     100.00

 Free energy of the ion-electron system (eV)
  ---------------------------------------------------
  alpha Z        PSCENC =       441.37612112
  Ewald energy   TEWEN  =     -7485.64291034
  -Hartree energ DENC   =     -3708.68415669
  -exchange      EXHF   =         0.00000000
  -V(xc)+E(xc)   XCENC  =       505.12844288
  PAW double counting   =      9348.07423200    -9564.46064786
  entropy T*S    EENTRO =        -0.00000000
  eigenvalues    EBANDS =     -1214.57403022
  atomic energy  EATOM  =     11559.05757976
  Solvation  Ediel_sol  =         0.00000000
  ---------------------------------------------------
  free energy    TOTEN  =      -119.72536935 eV

  energy without entropy =     -119.72536935  energy(sigma->0) =     -119.72536935


--------------------------------------------------------------------------------------------------------




--------------------------------------- Iteration      1(   6)  ---------------------------------------


    POTLOK:  cpu time    0.0288: real time    0.0291
    SETDIJ:  cpu time    0.4736: real time    0.4743
    EDDIAG:  cpu time    0.0318: real time    0.0319
  RMM-DIIS:  cpu time    0.0963: real time    0.0965
    ORTHCH:  cpu time    0.0053: real time    0.0053
       DOS:  cpu time    0.0002: real time    0.0002
    CHARGE:  cpu time    0.0092: real time    0.0092
    MIXING:  cpu time    0.0011: real time    0.0010
    --------------------------------------------
      LOOP:  cpu time    0.6463: real time    0.6476

 eigenvalue-minimisations  :   304
 total energy-change (2. order) : 0.5208373E+01  (-0.2697799E+02)
 number of electron     100.0000045 magnetization      15.8943402
 augmentation part       41.4218885 magnetization      13.6467084

 Broyden mixing:
  rms(total) = 0.88203E+01    rms(broyden)= 0.88170E+01
  rms(prec ) = 0.11153E+02
  weight for this iteration     100.00

 eigenvalues of (default mixing * dielectric matrix)
  average eigenvalue GAMMA=   0.3969
  0.3969

 Free energy of the ion-electron system (eV)
  ---------------------------------------------------
  alpha Z        PSCENC =       441.37612112
  Ewald energy   TEWEN  =     -7485.64291034
  -Hartree energ DENC   =     -3536.89054662
  -exchange      EXHF   =         0.00000000
  -V(xc)+E(xc)   XCENC  =       505.46355387
  PAW double counting   =     10078.67985834   -10289.69137802
  entropy T*S    EENTRO =        -0.00000714
  eigenvalues    EBANDS =     -1386.86926718
  atomic energy  EATOM  =     11559.05757976
  Solvation  Ediel_sol  =         0.00000000
  ---------------------------------------------------
  free energy    TOTEN  =      -114.51699620 eV

  energy without entropy =     -114.51698906  energy(sigma->0) =     -114.51699263


--------------------------------------------------------------------------------------------------------




--------------------------------------- Iteration      1(   7)  ---------------------------------------


    POTLOK:  cpu time    0.0324: real time    0.0326
    SETDIJ:  cpu time    0.5625: real time    0.5633
    EDDIAG:  cpu time    0.0325: real time    0.0326
  RMM-DIIS:  cpu time    0.1016: real time    0.1019
    ORTHCH:  cpu time    0.0061: real time    0.0061
       DOS:  cpu time    0.0001: real time    0.0001
    CHARGE:  cpu time    0.0085: real time    0.0085
    MIXING:  cpu time    0.0010: real time    0.0010
    --------------------------------------------
      LOOP:  cpu time    0.7447: real time    0.7460

 eigenvalue-minimisations  :   323
 total energy-change (2. order) : 0.3122898E+02  (-0.7203075E+01)
 number of electron     100.0000016 magnetization      13.3063061
 augmentation part       32.0513598 magnetization       8.4735806

 Broyden mixing:
  rms(total) = 0.33085E+01    rms(broyden)= 0.33026E+01
  rms(prec ) = 0.39161E+01
  weight for this iteration     100.00

 eigenvalues of (default mixing * dielectric matrix)
  average eigenvalue GAMMA=   0.5445
  0.8044  0.2847

 Free energy of the ion-electron system (eV)
  ---------------------------------------------------
  alpha Z        PSCENC =       441.37612112
  Ewald energy   TEWEN  =     -7485.64291034
  -Hartree energ DENC   =     -3701.26909759
  -exchange      EXHF   =         0.00000000
  -V(xc)+E(xc)   XCENC  =       506.88700449
  PAW double counting   =     10797.66900470   -11023.72215967
  entropy T*S    EENTRO =        -0.00000000
  eigenvalues    EBANDS =     -1177.64355471
  atomic energy  EATOM  =     11559.05757976
  Solvation  Ediel_sol  =         0.00000000
  ---------------------------------------------------
  free energy    TOTEN  =       -83.28801223 eV

  energy without entropy =      -83.28801223  energy(sigma->0) =      -83.28801223


--------------------------------------------------------------------------------------------------------




--------------------------------------- Iteration      1(   8)  ---------------------------------------


    POTLOK:  cpu time    0.0332: real time    0.0335
    SETDIJ:  cpu time    0.5077: real time    0.5085
    EDDIAG:  cpu time    0.0167: real time    0.0326
  RMM-DIIS:  cpu time    0.0464: real time    0.0946
    ORTHCH:  cpu time    0.0029: real time    0.0051
       DOS:  cpu time    0.0001: real time    0.0001
    CHARGE:  cpu time    0.0044: real time    0.0083
    MIXING:  cpu time    0.0005: real time    0.0009
    --------------------------------------------
      LOOP:  cpu time    0.6119: real time    0.6836

 eigenvalue-minimisations  :   289
 total energy-change (2. order) :-0.4779564E+01  (-0.1595351E+01)
 number of electron     100.0000021 magnetization      12.0335141
 augmentation part       32.9635908 magnetization       7.9017697

 Broyden mixing:
  rms(total) = 0.13790E+01    rms(broyden)= 0.13785E+01
  rms(prec ) = 0.16837E+01
  weight for this iteration     100.00

 eigenvalues of (default mixing * dielectric matrix)
  average eigenvalue GAMMA=   0.7337
  0.2996  1.0883  0.8131

 Free energy of the ion-electron system (eV)
  ---------------------------------------------------
  alpha Z        PSCENC =       441.37612112
  Ewald energy   TEWEN  =     -7485.64291034
  -Hartree energ DENC   =     -3667.49504335
  -exchange      EXHF   =         0.00000000
  -V(xc)+E(xc)   XCENC  =       502.56744701
  PAW double counting   =     11306.01108365   -11534.07516564
  entropy T*S    EENTRO =        -0.00000000
  eigenvalues    EBANDS =     -1209.86668869
  atomic energy  EATOM  =     11559.05757976
  Solvation  Ediel_sol  =         0.00000000
  ---------------------------------------------------
  free energy    TOTEN  =       -88.06757648 eV

  energy without entropy =      -88.06757648  energy(sigma->0) =      -88.06757648


--------------------------------------------------------------------------------------------------------




--------------------------------------- Iteration      1(   9)  ---------------------------------------


    POTLOK:  cpu time    0.0186: real time    0.0330
    SETDIJ:  cpu time    0.3044: real time    0.4231
    EDDIAG:  cpu time    0.0165: real time    0.0317
  RMM-DIIS:  cpu time    0.0663: real time    0.0929
    ORTHCH:  cpu time    0.0061: real time    0.0061
       DOS:  cpu time    0.0001: real time    0.0001
    CHARGE:  cpu time    0.0085: real time    0.0085
    MIXING:  cpu time    0.0011: real time    0.0011
    --------------------------------------------
      LOOP:  cpu time    0.4216: real time    0.5964

 eigenvalue-minimisations  :   291
 total energy-change (2. order) :-0.3252245E+01  (-0.1128993E+01)
 number of electron     100.0000024 magnetization      12.0018731
 augmentation part       33.6868342 magnetization       8.2251860

 Broyden mixing:
  rms(total) = 0.65953E+00    rms(broyden)= 0.65847E+00
  rms(prec ) = 0.69596E+00
  weight for this iteration     100.00

 eigenvalues of (default mixing * dielectric matrix)
  average eigenvalue GAMMA=   0.8372
  1.3475  1.1450  0.2992  0.5573

 Free energy of the ion-electron system (eV)
  ---------------------------------------------------
  alpha Z        PSCENC =       441.37612112
  Ewald energy   TEWEN  =     -7485.64291034
  -Hartree energ DENC   =     -3632.80342164
  -exchange      EXHF   =         0.00000000
  -V(xc)+E(xc)   XCENC  =       500.49325864
  PAW double counting   =     11650.21577573   -11880.20755752
  entropy T*S    EENTRO =        -0.00000000
  eigenvalues    EBANDS =     -1243.80866767
  atomic energy  EATOM  =     11559.05757976
  Solvation  Ediel_sol  =         0.00000000
  ---------------------------------------------------
  free energy    TOTEN  =       -91.31982191 eV

  energy without entropy =      -91.31982191  energy(sigma->0) =      -91.31982191


--------------------------------------------------------------------------------------------------------




--------------------------------------- Iteration      1(  10)  ---------------------------------------


    POTLOK:  cpu time    0.0180: real time    0.0333
    SETDIJ:  cpu time    0.2886: real time    0.5097
    EDDIAG:  cpu time    0.0325: real time    0.0326
  RMM-DIIS:  cpu time    0.0965: real time    0.0967
    ORTHCH:  cpu time    0.0060: real time    0.0059
       DOS:  cpu time    0.0001: real time    0.0001
    CHARGE:  cpu time    0.0083: real time    0.0084
    MIXING:  cpu time    0.0013: real time    0.0013
    --------------------------------------------
      LOOP:  cpu time    0.4512: real time    0.6880

 eigenvalue-minimisations  :   306
 total energy-change (2. order) : 0.1265826E+00  (-0.5342350E-01)
 number of electron     100.0000025 magnetization      12.1768944
 augmentation part       33.9332935 magnetization       8.4975202

 Broyden mixing:
  rms(total) = 0.37054E+00    rms(broyden)= 0.37016E+00
  rms(prec ) = 0.39465E+00
  weight for this iteration     100.00

 eigenvalues of (default mixing * dielectric matrix)
  average eigenvalue GAMMA=   0.9768
  1.5904  1.5904  0.2974  0.7811  0.6247

 Free energy of the ion-electron system (eV)
  ---------------------------------------------------
  alpha Z        PSCENC =       441.37612112
  Ewald energy   TEWEN  =     -7485.64291034
  -Hartree energ DENC   =     -3613.35140821
  -exchange      EXHF   =         0.00000000
  -V(xc)+E(xc)   XCENC  =       499.93052894
  PAW double counting   =     11730.95794077   -11962.00394502
  entropy T*S    EENTRO =        -0.00000000
  eigenvalues    EBANDS =     -1261.51714637
  atomic energy  EATOM  =     11559.05757976
  Solvation  Ediel_sol  =         0.00000000
  ---------------------------------------------------
  free energy    TOTEN  =       -91.19323936 eV

  energy without entropy =      -91.19323936  energy(sigma->0) =      -91.19323936


--------------------------------------------------------------------------------------------------------




--------------------------------------- Iteration      1(  11)  ---------------------------------------


    POTLOK:  cpu time    0.0263: real time    0.0325
    SETDIJ:  cpu time    0.2569: real time    0.4610
    EDDIAG:  cpu time    0.0157: real time    0.0314
  RMM-DIIS:  cpu time    0.0458: real time    0.0929
    ORTHCH:  cpu time    0.0029: real time    0.0056
       DOS:  cpu time    0.0001: real time    0.0003
    CHARGE:  cpu time    0.0043: real time    0.0082
    MIXING:  cpu time    0.0005: real time    0.0011
    --------------------------------------------
      LOOP:  cpu time    0.3526: real time    0.6330

 eigenvalue-minimisations  :   292
 total energy-change (2. order) : 0.3142489E-01  (-0.1726620E-01)
 number of electron     100.0000025 magnetization      12.0813194
 augmentation part       33.9558722 magnetization       8.4639685

 Broyden mixing:
  rms(total) = 0.20699E+00    rms(broyden)= 0.20692E+00
  rms(prec ) = 0.22266E+00
  weight for this iteration     100.00

 eigenvalues of (default mixing * dielectric matrix)
  average eigenvalue GAMMA=   0.9646
  1.5360  1.5360  0.2976  1.0352  0.6512  0.7313

 Free energy of the ion-electron system (eV)
  ---------------------------------------------------
  alpha Z        PSCENC =       441.37612112
  Ewald energy   TEWEN  =     -7485.64291034
  -Hartree energ DENC   =     -3601.48568095
  -exchange      EXHF   =         0.00000000
  -V(xc)+E(xc)   XCENC  =       499.63820331
  PAW double counting   =     11801.99018262   -12035.16559169
  entropy T*S    EENTRO =        -0.00000000
  eigenvalues    EBANDS =     -1270.92971829
  atomic energy  EATOM  =     11559.05757976
  Solvation  Ediel_sol  =         0.00000000
  ---------------------------------------------------
  free energy    TOTEN  =       -91.16181446 eV

  energy without entropy =      -91.16181446  energy(sigma->0) =      -91.16181446


--------------------------------------------------------------------------------------------------------




--------------------------------------- Iteration      1(  12)  ---------------------------------------


    POTLOK:  cpu time    0.0209: real time    0.0324
    SETDIJ:  cpu time    0.3765: real time    0.5311
    EDDIAG:  cpu time    0.0162: real time    0.0315
  RMM-DIIS:  cpu time    0.0728: real time    0.0996
    ORTHCH:  cpu time    0.0067: real time    0.0067
       DOS:  cpu time    0.0002: real time    0.0002
    CHARGE:  cpu time    0.0091: real time    0.0091
    MIXING:  cpu time    0.0012: real time    0.0012
    --------------------------------------------
      LOOP:  cpu time    0.5035: real time    0.7117

 eigenvalue-minimisations  :   307
 total energy-change (2. order) :-0.4902554E-03  (-0.3024520E-02)
 number of electron     100.0000025 magnetization      12.0066734
 augmentation part       33.9367770 magnetization       8.3828534

 Broyden mixing:
  rms(total) = 0.11466E+00    rms(broyden)= 0.11462E+00
  rms(prec ) = 0.13144E+00
  weight for this iteration     100.00

 eigenvalues of (default mixing * dielectric matrix)
  average eigenvalue GAMMA=   1.0698
  2.3872  1.3853  1.3853  0.2976  0.7103  0.7103  0.6128

 Free energy of the ion-electron system (eV)
  ---------------------------------------------------
  alpha Z        PSCENC =       441.37612112
  Ewald energy   TEWEN  =     -7485.64291034
  -Hartree energ DENC   =     -3601.65003613
  -exchange      EXHF   =         0.00000000
  -V(xc)+E(xc)   XCENC  =       499.68621064
  PAW double counting   =     11857.23924248   -12091.39572382
  entropy T*S    EENTRO =        -0.00000000
  eigenvalues    EBANDS =     -1269.83278843
  atomic energy  EATOM  =     11559.05757976
  Solvation  Ediel_sol  =         0.00000000
  ---------------------------------------------------
  free energy    TOTEN  =       -91.16230472 eV

  energy without entropy =      -91.16230472  energy(sigma->0) =      -91.16230472


--------------------------------------------------------------------------------------------------------




--------------------------------------- Iteration      1(  13)  ---------------------------------------


    POTLOK:  cpu time    0.0309: real time    0.0574
    SETDIJ:  cpu time    0.4719: real time    0.5991
    EDDIAG:  cpu time    0.0320: real time    0.0321
  RMM-DIIS:  cpu time    0.0978: real time    0.0980
    ORTHCH:  cpu time    0.0060: real time    0.0060
       DOS:  cpu time    0.0002: real time    0.0002
    CHARGE:  cpu time    0.0081: real time    0.0081
    MIXING:  cpu time    0.0013: real time    0.0013
    --------------------------------------------
      LOOP:  cpu time    0.6483: real time    0.8024

 eigenvalue-minimisations  :   300
 total energy-change (2. order) : 0.3472518E-02  (-0.1365806E-02)
 number of electron     100.0000025 magnetization      12.0196018
 augmentation part       33.9137195 magnetization       8.3791580

 Broyden mixing:
  rms(total) = 0.50844E-01    rms(broyden)= 0.50803E-01
  rms(prec ) = 0.64861E-01
  weight for this iteration     100.00

 eigenvalues of (default mixing * dielectric matrix)
  average eigenvalue GAMMA=   1.0465
  2.4311  1.3848  1.3848  0.2976  0.8661  0.8661  0.6244  0.5174

 Free energy of the ion-electron system (eV)
  ---------------------------------------------------
  alpha Z        PSCENC =       441.37612112
  Ewald energy   TEWEN  =     -7485.64291034
  -Hartree energ DENC   =     -3603.55991111
  -exchange      EXHF   =         0.00000000
  -V(xc)+E(xc)   XCENC  =       499.74394310
  PAW double counting   =     11891.76862207   -12126.51927708
  entropy T*S    EENTRO =        -0.00000000
  eigenvalues    EBANDS =     -1267.38299972
  atomic energy  EATOM  =     11559.05757976
  Solvation  Ediel_sol  =         0.00000000
  ---------------------------------------------------
  free energy    TOTEN  =       -91.15883220 eV

  energy without entropy =      -91.15883220  energy(sigma->0) =      -91.15883220


--------------------------------------------------------------------------------------------------------




--------------------------------------- Iteration      1(  14)  ---------------------------------------


    POTLOK:  cpu time    0.0383: real time    0.0384
    SETDIJ:  cpu time    0.4743: real time    0.5803
    EDDIAG:  cpu time    0.0168: real time    0.0324
  RMM-DIIS:  cpu time    0.0465: real time    0.0917
    ORTHCH:  cpu time    0.0060: real time    0.0060
       DOS:  cpu time    0.0001: real time    0.0001
    CHARGE:  cpu time    0.0088: real time    0.0088
    MIXING:  cpu time    0.0013: real time    0.0013
    --------------------------------------------
      LOOP:  cpu time    0.5921: real time    0.7590

 eigenvalue-minimisations  :   301
 total energy-change (2. order) : 0.1788820E-02  (-0.2621627E-03)
 number of electron     100.0000025 magnetization      12.0120122
 augmentation part       33.8857214 magnetization       8.3630642

 Broyden mixing:
  rms(total) = 0.26140E-01    rms(broyden)= 0.26108E-01
  rms(prec ) = 0.28486E-01
  weight for this iteration     100.00

 eigenvalues of (default mixing * dielectric matrix)
  average eigenvalue GAMMA=   1.0415
  2.3280  1.5484  1.5484  1.1705  0.2976  0.8007  0.5915  0.5915  0.4966

 Free energy of the ion-electron system (eV)
  ---------------------------------------------------
  alpha Z        PSCENC =       441.37612112
  Ewald energy   TEWEN  =     -7485.64291034
  -Hartree energ DENC   =     -3604.56359698
  -exchange      EXHF   =         0.00000000
  -V(xc)+E(xc)   XCENC  =       499.74959565
  PAW double counting   =     11892.49192195   -12127.25428086
  entropy T*S    EENTRO =        -0.00000000
  eigenvalues    EBANDS =     -1266.37147369
  atomic energy  EATOM  =     11559.05757976
  Solvation  Ediel_sol  =         0.00000000
  ---------------------------------------------------
  free energy    TOTEN  =       -91.15704338 eV

  energy without entropy =      -91.15704338  energy(sigma->0) =      -91.15704338


--------------------------------------------------------------------------------------------------------




--------------------------------------- Iteration      1(  15)  ---------------------------------------


    POTLOK:  cpu time    0.0303: real time    0.0316
    SETDIJ:  cpu time    0.4254: real time    0.4999
    EDDIAG:  cpu time    0.0162: real time    0.0320
  RMM-DIIS:  cpu time    0.0740: real time    0.0974
    ORTHCH:  cpu time    0.0048: real time    0.0050
       DOS:  cpu time    0.0001: real time    0.0001
    CHARGE:  cpu time    0.0085: real time    0.0086
    MIXING:  cpu time    0.0013: real time    0.0013
    --------------------------------------------
      LOOP:  cpu time    0.5607: real time    0.6760

 eigenvalue-minimisations  :   307
 total energy-change (2. order) : 0.5713498E-05  (-0.3636644E-04)
 number of electron     100.0000025 magnetization      12.0023798
 augmentation part       33.8781824 magnetization       8.3487821

 Broyden mixing:
  rms(total) = 0.11537E-01    rms(broyden)= 0.11519E-01
  rms(prec ) = 0.12377E-01
  weight for this iteration     100.00

 eigenvalues of (default mixing * dielectric matrix)
  average eigenvalue GAMMA=   1.0599
  2.4248  1.6162  1.6162  1.0709  1.0709  0.2976  0.6852  0.6852  0.6274  0.5050

 Free energy of the ion-electron system (eV)
  ---------------------------------------------------
  alpha Z        PSCENC =       441.37612112
  Ewald energy   TEWEN  =     -7485.64291034
  -Hartree energ DENC   =     -3604.95305719
  -exchange      EXHF   =         0.00000000
  -V(xc)+E(xc)   XCENC  =       499.74554566
  PAW double counting   =     11895.09066614   -12129.84010299
  entropy T*S    EENTRO =        -0.00000000
  eigenvalues    EBANDS =     -1265.99087984
  atomic energy  EATOM  =     11559.05757976
  Solvation  Ediel_sol  =         0.00000000
  ---------------------------------------------------
  free energy    TOTEN  =       -91.15703767 eV

  energy without entropy =      -91.15703767  energy(sigma->0) =      -91.15703767


--------------------------------------------------------------------------------------------------------




--------------------------------------- Iteration      1(  16)  ---------------------------------------


    POTLOK:  cpu time    0.0315: real time    0.0327
    SETDIJ:  cpu time    0.3106: real time    0.4571
    EDDIAG:  cpu time    0.0162: real time    0.0328
  RMM-DIIS:  cpu time    0.0414: real time    0.0848
    ORTHCH:  cpu time    0.0030: real time    0.0058
       DOS:  cpu time    0.0001: real time    0.0002
    CHARGE:  cpu time    0.0042: real time    0.0083
    MIXING:  cpu time    0.0008: real time    0.0014
    --------------------------------------------
      LOOP:  cpu time    0.4079: real time    0.6232

 eigenvalue-minimisations  :   268
 total energy-change (2. order) :-0.5760053E-04  (-0.8206877E-05)
 number of electron     100.0000025 magnetization      12.0001103
 augmentation part       33.8773488 magnetization       8.3446737

 Broyden mixing:
  rms(total) = 0.50292E-02    rms(broyden)= 0.50218E-02
  rms(prec ) = 0.60163E-02
  weight for this iteration     100.00

 eigenvalues of (default mixing * dielectric matrix)
  average eigenvalue GAMMA=   1.0324
  2.4498  1.6553  1.6553  1.1454  1.1454  0.2976  0.6960  0.6649  0.6649  0.4909
  0.4909

 Free energy of the ion-electron system (eV)
  ---------------------------------------------------
  alpha Z        PSCENC =       441.37612112
  Ewald energy   TEWEN  =     -7485.64291034
  -Hartree energ DENC   =     -3604.92540862
  -exchange      EXHF   =         0.00000000
  -V(xc)+E(xc)   XCENC  =       499.73337982
  PAW double counting   =     11898.63996909   -12133.36722565
  entropy T*S    EENTRO =        -0.00000000
  eigenvalues    EBANDS =     -1266.02860044
  atomic energy  EATOM  =     11559.05757976
  Solvation  Ediel_sol  =         0.00000000
  ---------------------------------------------------
  free energy    TOTEN  =       -91.15709527 eV

  energy without entropy =      -91.15709527  energy(sigma->0) =      -91.15709527


--------------------------------------------------------------------------------------------------------




--------------------------------------- Iteration      1(  17)  ---------------------------------------


    POTLOK:  cpu time    0.0231: real time    0.0320
    SETDIJ:  cpu time    0.3703: real time    0.4350
    EDDIAG:  cpu time    0.0161: real time    0.0319
  RMM-DIIS:  cpu time    0.0336: real time    0.0637
    ORTHCH:  cpu time    0.0036: real time    0.0073
       DOS:  cpu time    0.0001: real time    0.0002
    --------------------------------------------
      LOOP:  cpu time    0.4468: real time    0.5701

 eigenvalue-minimisations  :   210
 total energy-change (2. order) :-0.5302318E-06  (-0.2385133E-05)
 number of electron     100.0000025 magnetization      12.0001103
 augmentation part       33.8773488 magnetization       8.3446737

 Free energy of the ion-electron system (eV)
  ---------------------------------------------------
  alpha Z        PSCENC =       441.37612112
  Ewald energy   TEWEN  =     -7485.64291034
  -Hartree energ DENC   =     -3604.95612051
  -exchange      EXHF   =         0.00000000
  -V(xc)+E(xc)   XCENC  =       499.73109538
  PAW double counting   =     11899.73277481   -12134.44678296
  entropy T*S    EENTRO =        -0.00000000
  eigenvalues    EBANDS =     -1266.00885305
  atomic energy  EATOM  =     11559.05757976
  Solvation  Ediel_sol  =         0.00000000
  ---------------------------------------------------
  free energy    TOTEN  =       -91.15709580 eV

  energy without entropy =      -91.15709580  energy(sigma->0) =      -91.15709580


--------------------------------------------------------------------------------------------------------




 average (electrostatic) potential at core
  the test charge radii are     0.9577  0.7215
  (the norm of the test charge is              1.0000)
       1 -71.8719       2 -71.8729       3 -71.8741       4 -71.8732       5 -71.1730
       6 -71.1744       7 -71.1743       8 -71.1731       9 -70.8405      10 -70.8390
      11 -70.8396      12 -70.8401
 
 
 
 E-fermi :   4.0851     XC(G=0): -11.0873     alpha+bet :-11.2923


 spin component 1

 k-point     1 :       0.0000    0.0000    0.0000
  band No.  band energies     occupation 
      1     -46.6995      1.00000
      2     -46.6945      1.00000
      3     -46.6552      1.00000
      4     -46.6527      1.00000
      5     -46.5229      1.00000
      6     -46.5197      1.00000
      7     -46.5102      1.00000
      8     -46.5093      1.00000
      9     -46.5068      1.00000
     10     -46.5028      1.00000
     11     -46.5020      1.00000
     12     -46.4984      1.00000
     13     -15.3837      1.00000
     14     -14.8200      1.00000
     15     -14.5033      1.00000
     16     -13.7395      1.00000
     17     -13.5187      1.00000
     18     -13.4029      1.00000
     19     -13.3901      1.00000
     20     -13.3327      1.00000
     21      -3.0635      1.00000
     22      -2.4977      1.00000
     23      -2.3406      1.00000
     24      -2.1925      1.00000
     25      -1.6915      1.00000
     26      -1.5881      1.00000
     27      -1.4743      1.00000
     28      -1.4568      1.00000
     29      -1.2585      1.00000
     30      -1.2209      1.00000
     31      -1.1177      1.00000
     32      -0.4582      1.00000
     33      -0.3253      1.00000
     34       0.1513      1.00000
     35       0.4809      1.00000
     36       0.8376      1.00000
     37       0.8435      1.00000
     38       0.9396      1.00000
     39       0.9693      1.00000
     40       1.3624      1.00000
     41       1.4165      1.00000
     42       1.4593      1.00000
     43       1.5184      1.00000
     44       2.1557      1.00000
     45       2.2920      1.00000
     46       2.4417      1.00000
     47       2.5395      1.00000
     48       2.5962      1.00000
     49       2.6131      1.00000
     50       2.6437      1.00000
     51       2.7598      1.00000
     52       2.9053      1.00000
     53       3.1851      1.00000
     54       3.3744      1.00000
     55       3.7545      1.00000
     56       3.9166      1.00000
     57       4.8446      0.00000
     58       5.1948      0.00000
     59       6.3092      0.00000
     60       6.3921      0.00000
     61       6.4288      0.00000
     62       6.5408      0.00000
     63       6.5581      0.00000
     64       7.0364      0.00000
     65      10.8301      0.00000
     66      12.8884      0.00000
     67      13.4886      0.00000
     68      14.4002      0.00000
     69      14.9971      0.00000
     70      16.2614      0.00000
     71      16.4511      0.00000
     72      17.2006      0.00000

 spin component 2

 k-point     1 :       0.0000    0.0000    0.0000
  band No.  band energies     occupation 
      1     -43.6938      1.00000
      2     -43.6901      1.00000
      3     -43.6794      1.00000
      4     -43.6753      1.00000
      5     -43.3908      1.00000
      6     -43.3811      1.00000
      7     -43.3266      1.00000
      8     -43.3188      1.00000
      9     -43.1857      1.00000
     10     -43.1816      1.00000
     11     -43.1759      1.00000
     12     -43.1694      1.00000
     13     -15.2862      1.00000
     14     -14.7362      1.00000
     15     -14.4075      1.00000
     16     -13.6608      1.00000
     17     -13.4457      1.00000
     18     -13.3293      1.00000
     19     -13.3191      1.00000
     20     -13.2684      1.00000
     21      -2.4745      1.00000
     22      -1.8772      1.00000
     23      -1.6255      1.00000
     24      -1.5054      1.00000
     25      -1.0148      1.00000
     26      -0.9017      1.00000
     27      -0.7504      1.00000
     28      -0.7135      1.00000
     29      -0.4638      1.00000
     30      -0.4529      1.00000
     31      -0.3939      1.00000
     32       0.2419      1.00000
     33       0.3224      1.00000
     34       0.8894      1.00000
     35       0.9464      1.00000
     36       1.1930      1.00000
     37       1.2978      1.00000
     38       1.6598      1.00000
     39       1.8488      1.00000
     40       2.4858      1.00000
     41       2.7362      1.00000
     42       2.8092      1.00000
     43       3.0354      1.00000
     44       3.4145      1.00000
     45       4.7725      0.00000
     46       4.7833      0.00000
     47       4.9320      0.00000
     48       5.1760      0.00000
     49       5.2108      0.00000
     50       5.2145      0.00000
     51       5.3258      0.00000
     52       5.4456      0.00000
     53       5.4929      0.00000
     54       5.6765      0.00000
     55       6.1878      0.00000
     56       6.4361      0.00000
     57       6.5235      0.00000
     58       6.7389      0.00000
     59       7.5251      0.00000
     60       7.6258      0.00000
     61       7.7387      0.00000
     62       7.8564      0.00000
     63       7.8678      0.00000
     64       8.2874      0.00000
     65      11.2573      0.00000
     66      13.2825      0.00000
     67      13.8548      0.00000
     68      14.9848      0.00000
     69      15.5355      0.00000
     70      16.9372      0.00000
     71      17.1268      0.00000
     72      17.5374      0.00000


--------------------------------------------------------------------------------------------------------


 soft charge-density along one line, spin component           1
         0         1         2         3         4         5         6         7         8         9
 total charge-density along one line
 
 soft charge-density along one line, spin component           2
         0         1         2         3         4         5         6         7         8         9
 total charge-density along one line
 
 pseudopotential strength for first ion, spin component:           1
-45.872   0.067   0.000   9.500  -0.034  -0.000  -0.000  -0.001
  0.067 -45.922   0.000  -0.034   9.522  -0.000   0.000   0.016
  0.000   0.000 -45.909  -0.000  -0.000   9.513   0.020   0.000
  9.500  -0.034  -0.000   4.662   0.013   0.000   0.000  -0.000
 -0.034   9.522  -0.000   0.013   4.655   0.000  -0.000  -0.006
 -0.000  -0.000   9.513   0.000   0.000   4.649  -0.008  -0.000
 -0.000   0.000   0.020   0.000  -0.000  -0.008  -5.905   0.000
 -0.001   0.016   0.000  -0.000  -0.006  -0.000   0.000  -5.889
 -0.012  -0.012   0.000   0.004   0.004  -0.000  -0.000  -0.115
  0.000  -0.000  -0.013  -0.000   0.000   0.006   0.269  -0.000
 -0.017  -0.006  -0.000   0.006   0.003   0.000   0.000   0.128
 -0.000   0.000   0.019   0.000  -0.000  -0.007  -6.346   0.000
 -0.001   0.016   0.000  -0.000  -0.006  -0.000   0.000  -6.331
 -0.012  -0.011   0.000   0.004   0.004  -0.000  -0.000  -0.114
  0.000  -0.000  -0.013  -0.000   0.000   0.006   0.264  -0.000
 -0.017  -0.006  -0.000   0.006   0.003   0.000   0.000   0.127
 -0.006   0.004   0.000   0.002   0.000  -0.000  -0.000  -0.021
 -0.012   0.009   0.000   0.005   0.001  -0.000  -0.000  -0.042
 pseudopotential strength for first ion, spin component:           2
-43.621   0.030  -0.000   8.462  -0.011   0.000  -0.000  -0.008
  0.030 -43.703   0.000  -0.011   8.497  -0.000   0.000   0.013
 -0.000   0.000 -43.981   0.000  -0.000   8.619   0.011   0.000
  8.462  -0.011   0.000   5.001   0.008  -0.000   0.000   0.004
 -0.011   8.497  -0.000   0.008   4.989   0.000   0.000  -0.004
  0.000  -0.000   8.619  -0.000   0.000   4.940  -0.002   0.000
 -0.000   0.000   0.011   0.000   0.000  -0.002  -4.116  -0.000
 -0.008   0.013   0.000   0.004  -0.004   0.000  -0.000  -4.016
 -0.008  -0.007   0.000   0.002  -0.000   0.000   0.000   0.193
  0.000  -0.000   0.004   0.000   0.000  -0.004  -0.296   0.000
 -0.016   0.006  -0.000   0.005  -0.004   0.000  -0.000  -0.238
 -0.000   0.000   0.011   0.000   0.000  -0.001  -4.583  -0.000
 -0.007   0.013   0.000   0.004  -0.004   0.000  -0.000  -4.484
 -0.008  -0.007   0.000   0.002  -0.000   0.000   0.000   0.191
  0.000  -0.000   0.003   0.000   0.000  -0.004  -0.291   0.000
 -0.016   0.005  -0.000   0.005  -0.004   0.000  -0.000  -0.235
 -0.003   0.001   0.000   0.002   0.001  -0.000   0.000  -0.003
 -0.006   0.003   0.000   0.004   0.001  -0.000   0.000  -0.006
 total augmentation occupancy for first ion, spin component:           1
  1.986   0.000  -0.000  -0.056   0.000  -0.000   0.000   0.006   0.002   0.000   0.007  -0.000  -0.005  -0.002  -0.000  -0.005
  0.000   1.986   0.000   0.000  -0.055   0.000   0.000  -0.005  -0.011   0.000  -0.006  -0.000   0.004   0.012  -0.000   0.005
 -0.000   0.000   1.987   0.000  -0.000  -0.053   0.004   0.000   0.000  -0.010   0.000  -0.004  -0.000  -0.000   0.010  -0.000
 -0.056   0.000   0.000   0.184  -0.055   0.000   0.000   0.074  -0.007  -0.000   0.079  -0.000  -0.077   0.006   0.000  -0.075
  0.000  -0.055  -0.000  -0.055   0.220   0.000   0.000   0.004  -0.110  -0.000  -0.043  -0.000  -0.004   0.112  -0.000   0.045
 -0.000   0.000  -0.053   0.000   0.000   0.202   0.069  -0.000   0.000  -0.098   0.000  -0.088   0.000  -0.000   0.100  -0.000
  0.000   0.000   0.004   0.000   0.000   0.069   2.920  -0.000   0.000  -2.021  -0.000  -2.421  -0.000  -0.000   0.472   0.000
  0.006  -0.005   0.000   0.074   0.004  -0.000  -0.000   6.422   0.307   0.000   0.046  -0.000  -5.566   0.547   0.000  -0.946
  0.002  -0.011   0.000  -0.007  -0.110   0.000   0.000   0.307   7.511  -0.000   1.574  -0.000   0.582  -6.162   0.000  -0.484
  0.000   0.000  -0.010  -0.000  -0.000  -0.098  -2.021   0.000  -0.000   4.214   0.000   0.463   0.000   0.000  -3.322  -0.000
  0.007  -0.006   0.000   0.079  -0.043   0.000  -0.000   0.046   1.574   0.000   6.728   0.000  -0.996  -0.476  -0.000  -5.892
 -0.000  -0.000  -0.004  -0.000  -0.000  -0.088  -2.421  -0.000  -0.000   0.463   0.000   2.969   0.000   0.000   0.953  -0.000
 -0.005   0.004  -0.000  -0.077  -0.004   0.000  -0.000  -5.566   0.582   0.000  -0.996   0.000   5.706  -1.292  -0.000   1.757
 -0.002   0.012  -0.000   0.006   0.112  -0.000  -0.000   0.547  -6.162   0.000  -0.476   0.000  -1.292   5.976  -0.000  -0.487
 -0.000  -0.000   0.010   0.000  -0.000   0.100   0.472   0.000   0.000  -3.322  -0.000   0.953  -0.000  -0.000   3.516   0.000
 -0.005   0.005  -0.000  -0.075   0.045  -0.000   0.000  -0.946  -0.484  -0.000  -5.892  -0.000   1.757  -0.487   0.000   6.179
  0.012  -0.009  -0.000   0.007   0.008  -0.000   0.000   0.509   0.707  -0.000  -1.807  -0.000  -0.657  -0.778   0.000   1.932
 -0.006   0.005   0.000   0.003  -0.002   0.000  -0.000   0.130  -0.045   0.000   0.159   0.000  -0.079   0.083  -0.000  -0.218
 total augmentation occupancy for first ion, spin component:           2
 -0.002   0.001   0.000  -0.007   0.001   0.000   0.000  -0.002   0.001  -0.000   0.000  -0.000   0.001  -0.001   0.000  -0.000
  0.001  -0.002  -0.000   0.001  -0.007  -0.000   0.000  -0.001   0.001   0.000   0.003  -0.000   0.001  -0.001  -0.000  -0.003
  0.000  -0.000  -0.003   0.000  -0.000  -0.009  -0.002   0.000   0.000   0.003  -0.000   0.002  -0.000  -0.000  -0.004   0.000
 -0.007   0.001   0.000   0.010  -0.005   0.000  -0.000   0.030   0.004  -0.000  -0.007  -0.000  -0.018  -0.004   0.000   0.002
  0.001  -0.007  -0.000  -0.005   0.018   0.000   0.000  -0.005  -0.015   0.000  -0.022  -0.000   0.004   0.007  -0.000   0.014
  0.000  -0.000  -0.009   0.000   0.000   0.019   0.024  -0.000   0.000  -0.058   0.000  -0.009   0.000  -0.000   0.034  -0.000
  0.000   0.000  -0.002  -0.000   0.000   0.024   1.740  -0.000   0.000  -2.994  -0.000  -0.514   0.000  -0.000   1.997   0.000
 -0.002  -0.001   0.000   0.030  -0.005  -0.000  -0.000   2.876   1.857   0.000  -1.603   0.000  -1.343  -1.245  -0.000   0.979
  0.001   0.001   0.000   0.004  -0.015   0.000   0.000   1.857   5.026  -0.000   2.924  -0.000  -1.231  -2.946   0.000  -2.105
 -0.000   0.000   0.003  -0.000   0.000  -0.058  -2.994   0.000  -0.000   2.902   0.000   1.978  -0.000   0.000  -1.306  -0.000
  0.000   0.003  -0.000  -0.007  -0.022   0.000  -0.000  -1.603   2.924   0.000   3.474   0.000   0.969  -2.112  -0.000  -1.771
 -0.000  -0.000   0.002  -0.000  -0.000  -0.009  -0.514   0.000  -0.000   1.978   0.000  -0.144  -0.000   0.000  -1.420  -0.000
  0.001   0.001  -0.000  -0.018   0.004   0.000   0.000  -1.343  -1.231  -0.000   0.969  -0.000   0.515   0.877   0.000  -0.652
 -0.001  -0.001  -0.000  -0.004   0.007  -0.000  -0.000  -1.245  -2.946   0.000  -2.112   0.000   0.877   1.667  -0.000   1.566
  0.000  -0.000  -0.004   0.000  -0.000   0.034   1.997  -0.000   0.000  -1.306  -0.000  -1.420   0.000  -0.000   0.408   0.000
 -0.000  -0.003   0.000   0.002   0.014  -0.000   0.000   0.979  -2.105  -0.000  -1.771  -0.000  -0.652   1.566   0.000   0.762
  0.001  -0.000  -0.000   0.005   0.000  -0.000   0.000   0.127   0.031  -0.000  -0.207  -0.000   0.019  -0.035   0.000   0.121
 -0.000   0.000   0.000   0.001   0.000   0.000  -0.000   0.134   0.058   0.000  -0.090   0.000  -0.116  -0.023  -0.000   0.045


------------------------ aborting loop because EDIFF is reached ----------------------------------------


 


 total charge     
 
# of ion       s       p       d       tot
------------------------------------------
    1        0.325   6.350   4.924  11.599
    2        0.325   6.350   4.924  11.599
    3        0.325   6.349   4.924  11.599
    4        0.325   6.349   4.924  11.599
    5        1.588   3.438   0.000   5.026
    6        1.588   3.438   0.000   5.026
    7        1.588   3.438   0.000   5.026
    8        1.588   3.438   0.000   5.026
    9        1.573   3.503   0.000   5.076
   10        1.573   3.503   0.000   5.076
   11        1.573   3.503   0.000   5.076
   12        1.573   3.503   0.000   5.076
--------------------------------------------------
tot         13.947  53.161  19.697  86.805
 


 magnetization (x)
 
# of ion       s       p       d       tot
------------------------------------------
    1        0.035   0.027   2.815   2.877
    2        0.035   0.027   2.815   2.877
    3        0.035   0.027   2.816   2.878
    4        0.035   0.027   2.816   2.878
    5        0.003   0.003   0.000   0.006
    6        0.003   0.003   0.000   0.007
    7        0.003   0.003   0.000   0.007
    8        0.003   0.003   0.000   0.006
    9       -0.000   0.011   0.000   0.011
   10       -0.000   0.011   0.000   0.011
   11       -0.000   0.011   0.000   0.011
   12       -0.000   0.011   0.000   0.011
--------------------------------------------------
tot          0.151   0.166  11.262  11.579
 
    CHARGE:  cpu time    0.0131: real time    0.0131
    FORLOC:  cpu time    0.0040: real time    0.0040
    FORNL :  cpu time    0.0780: real time    0.0782
    STRESS:  cpu time    0.2033: real time    0.2036
    FORCOR:  cpu time    0.0384: real time    0.0385
    FORHAR:  cpu time    0.0087: real time    0.0087
    MIXING:  cpu time    0.0018: real time    0.0018
    OFIELD:  cpu time    0.0001: real time    0.0001

  FORCE on cell =-STRESS in cart. coord.  units (eV):
  Direction    XX          YY          ZZ          XY          YZ          ZX
  --------------------------------------------------------------------------------------
  Alpha Z   441.37612   441.37612   441.37612
  Ewald   -1252.10130 -4029.82518 -2203.72685     0.00035     0.08268     0.00014
  Hartree  2046.20447   136.44686  1422.52817     0.00017     0.03080     0.00006
  E(xc)    -549.89315  -550.77251  -549.89071     0.00000    -0.00001    -0.00000
  Local   -2399.25841  2247.05321  -845.44233    -0.00052    -0.10685    -0.00017
  n-local  -328.30966  -339.40592  -336.50806     0.00000    -0.00161    -0.00001
  augment   448.35206   460.62488   455.80953     0.00000    -0.00023    -0.00001
  Kinetic  1595.71518  1623.08494  1606.15375     0.00002    -0.00243    -0.00003
  Fock        0.00000     0.00000     0.00000     0.00000     0.00000     0.00000
  -------------------------------------------------------------------------------------
  Total       2.08531   -11.41760    -9.70038     0.00004     0.00235    -0.00002
  in kB      26.50782  -145.13675  -123.30805     0.00045     0.02993    -0.00022
  external pressure =      -80.65 kB  Pullay stress =        0.00 kB


 VOLUME and BASIS-vectors are now :
 -----------------------------------------------------------------------------
  energy-cutoff  :      400.00
  volume of cell :      126.04
      direct lattice vectors                 reciprocal lattice vectors
     2.916331000  0.000000000  0.000000000     0.342896605  0.000000075 -0.000000073
    -0.000001000  4.580966000  0.000145000     0.000000000  0.218294570 -0.000006941
     0.000002000  0.000300000  9.434393000     0.000000000 -0.000003355  0.105995161

  length of vectors
     2.916331000  4.580966002  9.434393005     0.342896605  0.218294570  0.105995161


 FORCES acting on ions
    electron-ion (+dipol)            ewald-force                    non-local-force                 convergence-correction
 -----------------------------------------------------------------------------------------------
   0.669E-04 -.205E+02 0.120E+03   -.670E-04 0.207E+02 -.121E+03   -.622E-05 -.239E+00 0.140E+01   0.651E-06 -.125E-02 -.144E-01
   -.149E-02 0.205E+02 -.120E+03   0.143E-02 -.207E+02 0.120E+03   0.835E-04 0.239E+00 -.140E+01   0.608E-05 0.394E-02 0.130E-01
   -.930E-04 -.207E+02 -.120E+03   0.978E-04 0.208E+02 0.121E+03   0.167E-04 -.236E+00 -.140E+01   -.158E-04 0.147E-02 -.239E-01
   0.151E-02 0.207E+02 0.120E+03   -.146E-02 -.208E+02 -.121E+03   -.897E-04 0.237E+00 0.140E+01   0.151E-04 -.349E-02 0.209E-01
   0.819E-04 -.349E+03 0.347E+02   -.901E-04 0.368E+03 -.338E+02   0.119E-04 -.205E+02 0.638E+00   0.145E-05 0.116E-01 -.936E-02
   -.162E-03 -.349E+03 -.347E+02   0.173E-03 0.368E+03 0.338E+02   -.147E-04 -.205E+02 -.627E+00   0.339E-05 -.440E-02 -.762E-02
   0.707E-03 0.349E+03 0.348E+02   -.795E-03 -.368E+03 -.338E+02   0.764E-04 0.205E+02 0.629E+00   -.604E-06 0.215E-02 -.268E-02
   -.627E-03 0.349E+03 -.348E+02   0.713E-03 -.368E+03 0.338E+02   -.732E-04 0.205E+02 -.637E+00   -.417E-05 -.889E-02 -.378E-02
   0.949E-03 -.888E+02 -.322E+02   -.107E-02 0.895E+02 0.287E+02   0.111E-03 -.216E+01 0.213E+01   -.951E-06 -.341E-02 0.516E-02
   0.139E-03 0.887E+02 -.322E+02   -.149E-03 -.894E+02 0.288E+02   0.846E-05 0.219E+01 0.216E+01   -.475E-06 -.131E-01 0.304E-02
   -.109E-02 -.887E+02 0.322E+02   0.123E-02 0.894E+02 -.288E+02   -.121E-03 -.219E+01 -.216E+01   -.163E-05 0.296E-02 0.741E-02
   0.538E-05 0.888E+02 0.322E+02   -.787E-05 -.896E+02 -.288E+02   0.238E-05 0.216E+01 -.213E+01   -.273E-06 0.133E-01 0.531E-02
 -----------------------------------------------------------------------------------------------
   -.464E-05 -.314E-02 0.552E-02   0.113E-13 0.995E-13 -.355E-13   0.531E-05 0.230E-02 0.139E-02   0.277E-05 0.843E-03 -.694E-02
 
 
 POSITION                                       TOTAL-FORCE (eV/Angst)
 -----------------------------------------------------------------------------------
      0.72908      0.09767      8.16089        -0.000006     -0.055161      0.571810
      2.18724      4.48362      1.27371         0.000033      0.054325     -0.573049
      2.18725      2.38829      5.99061         0.000005     -0.055217     -0.573144
      0.72909      2.19297      3.44385        -0.000030      0.055550      0.574042
      0.72908      3.26386      5.06571         0.000005     -1.521669      1.578897
      2.18725      0.97293      9.08584        -0.000001     -1.515540     -1.577018
      0.72908      3.60834      0.34874        -0.000013      1.515645      1.577350
      2.18725      1.31740      4.36879         0.000008      1.521709     -1.578800
      0.72908      0.87650      2.04078        -0.000016     -1.427842     -1.280431
      0.72908      1.41363      6.75741        -0.000002      1.434617     -1.279622
      2.18725      3.16763      2.67713         0.000018     -1.434528      1.279388
      2.18725      3.70476      7.39378        -0.000001      1.428110      1.280578
 -----------------------------------------------------------------------------------
    total drift:                                0.000003      0.000007     -0.000030


--------------------------------------------------------------------------------------------------------



  FREE ENERGIE OF THE ION-ELECTRON SYSTEM (eV)
  ---------------------------------------------------
  free  energy   TOTEN  =       -91.15709580 eV

  energy  without entropy=      -91.15709580  energy(sigma->0) =      -91.15709580
 


--------------------------------------------------------------------------------------------------------


    POTLOK:  cpu time    0.5496: real time    0.6184


--------------------------------------------------------------------------------------------------------


 stress matrix after NEB project (eV)
      2.08531      0.00004     -0.00002
      0.00004    -11.41760      0.00235
     -0.00002      0.00235     -9.70038
  FORCES: max atom, RMS     2.192805    1.714133
  FORCE total and by dimension    5.937932    1.578897
  Stress total and by dimension   15.126380   11.417596


--------------------------------------------------------------------------------------------------------


    WAVPRE:  cpu time    0.6867: real time    0.7593
    FEWALD:  cpu time    0.0027: real time    0.0034

 real space projection operators:
  total allocation   :       4305.69 KBytes
  max/ min on nodes  :       1080.44       1072.41

    ORTHCH:  cpu time    0.0111: real time    0.0235
     LOOP+:  cpu time    9.9469: real time   11.9069


--------------------------------------- Iteration      2(   1)  ---------------------------------------


    POTLOK:  cpu time    0.0403: real time    0.0500
    SETDIJ:  cpu time    0.5027: real time    0.6192
     EDDAV:  cpu time    0.1098: real time    0.1992
       DOS:  cpu time    0.0002: real time    0.0002
    CHARGE:  cpu time    0.0096: real time    0.0096
    MIXING:  cpu time    0.0010: real time    0.0010
    --------------------------------------------
      LOOP:  cpu time    0.6635: real time    0.8791

 eigenvalue-minimisations  :   304
 total energy-change (2. order) : 0.1003697E+01  (-0.4436657E+02)
 number of electron     100.0000000 magnetization      11.9995535
 augmentation part       33.9802703 magnetization       8.2903937

 Broyden mixing:
  rms(total) = 0.80446E+00    rms(broyden)= 0.80249E+00
  rms(prec ) = 0.82089E+00
  weight for this iteration     100.00

 Free energy of the ion-electron system (eV)
  ---------------------------------------------------
  alpha Z        PSCENC =       441.37612112
  Ewald energy   TEWEN  =     -7300.66664598
  -Hartree energ DENC   =     -3773.13358965
  -exchange      EXHF   =         0.00000000
  -V(xc)+E(xc)   XCENC  =       500.93991775
  PAW double counting   =     11900.61118017   -12135.30786534
  entropy T*S    EENTRO =        -0.00000000
  eigenvalues    EBANDS =     -1283.03009642
  atomic energy  EATOM  =     11559.05757976
  Solvation  Ediel_sol  =         0.00000000
  ---------------------------------------------------
  free energy    TOTEN  =       -90.15339858 eV

  energy without entropy =      -90.15339858  energy(sigma->0) =      -90.15339858


--------------------------------------------------------------------------------------------------------




--------------------------------------- Iteration      2(   2)  ---------------------------------------


    POTLOK:  cpu time    0.0208: real time    0.0339
    SETDIJ:  cpu time    0.3473: real time    0.4303
    EDDIAG:  cpu time    0.0330: real time    0.0330
  RMM-DIIS:  cpu time    0.1170: real time    0.1172
    ORTHCH:  cpu time    0.0059: real time    0.0059
       DOS:  cpu time    0.0002: real time    0.0002
    CHARGE:  cpu time    0.0090: real time    0.0091
    MIXING:  cpu time    0.0011: real time    0.0011
    --------------------------------------------
      LOOP:  cpu time    0.5343: real time    0.6307

 eigenvalue-minimisations  :   343
 total energy-change (2. order) :-0.2189407E+01  (-0.2216908E+01)
 number of electron      99.9999998 magnetization      11.9997049
 augmentation part       33.8520868 magnetization       8.2894046

 Broyden mixing:
  rms(total) = 0.58759E+00    rms(broyden)= 0.58724E+00
  rms(prec ) = 0.61643E+00
  weight for this iteration     100.00

 eigenvalues of (default mixing * dielectric matrix)
  average eigenvalue GAMMA=   0.6251
  0.6251

[...]
  0.003  -0.005  -0.000   0.099   0.015  -0.000   0.000   1.572   4.796   0.000   2.343  -0.000  -1.038  -2.789  -0.000  -1.637
 -0.000  -0.000   0.012  -0.000   0.000  -0.169  -3.177   0.000   0.000   3.034   0.000   2.125   0.000  -0.000  -1.472  -0.000
 -0.002   0.008   0.000  -0.022  -0.024  -0.000   0.000  -2.408   2.343   0.000   3.467  -0.000   1.636  -1.611  -0.000  -1.853
  0.000   0.000   0.001   0.000   0.000  -0.099  -0.363   0.000  -0.000   2.125  -0.000  -0.233  -0.000   0.000  -1.527   0.000
  0.002   0.001   0.000  -0.025  -0.030  -0.000   0.000  -2.026  -1.038   0.000   1.636  -0.000   0.978   0.745  -0.000  -1.151
 -0.002   0.003   0.000  -0.071  -0.011   0.000  -0.000  -1.051  -2.789  -0.000  -1.611   0.000   0.745   1.544   0.000   1.185
  0.000   0.000  -0.013   0.000   0.000   0.094   2.125   0.000  -0.000  -1.472  -0.000  -1.527  -0.000   0.000   0.557   0.000
  0.002  -0.008  -0.000   0.017   0.005   0.000  -0.000   1.677  -1.637  -0.000  -1.853   0.000  -1.151   1.185   0.000   0.828
  0.001  -0.000   0.000  -0.001   0.022   0.000  -0.000   0.397   0.100   0.000  -0.404   0.000  -0.161  -0.099  -0.000   0.297
 -0.000  -0.001  -0.000   0.007  -0.011  -0.000   0.000   0.088   0.029  -0.000  -0.068   0.000  -0.094  -0.001   0.000   0.020


------------------------ aborting loop because EDIFF is reached ----------------------------------------


 


 total charge     
 
# of ion       s       p       d       tot
------------------------------------------
    1        0.329   6.393   5.090  11.812
    2        0.329   6.393   5.091  11.813
    3        0.329   6.393   5.092  11.814
    4        0.329   6.393   5.092  11.813
    5        1.600   3.443   0.000   5.043
    6        1.600   3.444   0.000   5.043
    7        1.600   3.444   0.000   5.043
    8        1.600   3.443   0.000   5.043
    9        1.584   3.506   0.000   5.090
   10        1.584   3.506   0.000   5.090
   11        1.584   3.506   0.000   5.090
   12        1.584   3.506   0.000   5.090
--------------------------------------------------
tot         14.050  53.370  20.365  87.785
 


 magnetization (x)
 
# of ion       s       p       d       tot
------------------------------------------
    1        0.038   0.028   2.645   2.711
    2        0.038   0.028   2.644   2.710
    3        0.038   0.028   2.643   2.710
    4        0.038   0.028   2.644   2.711
    5        0.003   0.166   0.000   0.169
    6        0.003   0.166   0.000   0.169
    7        0.003   0.166   0.000   0.169
    8        0.003   0.166   0.000   0.169
    9        0.004  -0.012   0.000  -0.008
   10        0.004  -0.012   0.000  -0.008
   11        0.004  -0.012   0.000  -0.008
   12        0.004  -0.012   0.000  -0.008
--------------------------------------------------
tot          0.182   0.729  10.576  11.487
 
    CHARGE:  cpu time    0.0090: real time    0.0090
    FORLOC:  cpu time    0.0018: real time    0.0019
    FORNL :  cpu time    0.0559: real time    0.0560
    STRESS:  cpu time    0.1567: real time    0.1571
    FORCOR:  cpu time    0.0351: real time    0.0352
    FORHAR:  cpu time    0.0068: real time    0.0069
    MIXING:  cpu time    0.0012: real time    0.0012
    OFIELD:  cpu time    0.0000: real time    0.0000

  FORCE on cell =-STRESS in cart. coord.  units (eV):
  Direction    XX          YY          ZZ          XY          YZ          ZX
  --------------------------------------------------------------------------------------
  Alpha Z   441.37612   441.37612   441.37612
  Ewald    -823.66643 -3543.96590 -3108.44920     0.00217     0.04279     0.00296
  Hartree  2236.70478   536.19751   848.75440     0.00071     0.05007     0.00128
  E(xc)    -549.87613  -551.83149  -551.94844     0.00001     0.00010     0.00001
  Local   -2995.72782  1356.90542   631.22214    -0.00287    -0.10182    -0.00409
  n-local  -328.01268  -343.25032  -336.42968     0.00008     0.00295     0.00005
  augment   439.92998   460.15762   454.98969     0.00001     0.00043    -0.00003
  Kinetic  1575.94775  1642.18111  1622.62970     0.00014    -0.01234    -0.00010
  Fock        0.00000     0.00000     0.00000     0.00000     0.00000     0.00000
  -------------------------------------------------------------------------------------
  Total      -3.32441    -2.22993     2.14473     0.00025    -0.01782     0.00007
  in kB     -42.25886   -28.34619    27.26314     0.00320    -0.22652     0.00093
  external pressure =      -14.45 kB  Pullay stress =        0.00 kB


 VOLUME and BASIS-vectors are now :
 -----------------------------------------------------------------------------
  energy-cutoff  :      400.00
  volume of cell :      126.04
      direct lattice vectors                 reciprocal lattice vectors
     2.916331000  0.000000000  0.000000000     0.342896605  0.000000075 -0.000000073
    -0.000001000  4.580966000  0.000145000     0.000000000  0.218294570 -0.000006941
     0.000002000  0.000300000  9.434393000     0.000000000 -0.000003355  0.105995161

  length of vectors
     2.916331000  4.580966002  9.434393005     0.342896605  0.218294570  0.105995161


 FORCES acting on ions
    electron-ion (+dipol)            ewald-force                    non-local-force                 convergence-correction
 -----------------------------------------------------------------------------------------------
   -.221E-02 0.162E+02 -.657E+02   0.219E-02 -.134E+02 0.608E+02   0.908E-04 -.267E+01 0.501E+01   0.115E-05 -.634E-01 0.183E-02
   -.105E-01 -.163E+02 0.657E+02   0.106E-01 0.135E+02 -.608E+02   0.391E-03 0.266E+01 -.502E+01   0.124E-04 0.619E-01 -.254E-02
   0.936E-02 0.161E+02 0.652E+02   -.938E-02 -.134E+02 -.603E+02   -.351E-03 -.266E+01 -.502E+01   -.130E-04 -.416E-01 0.497E-01
   0.691E-02 -.160E+02 -.652E+02   -.691E-02 0.132E+02 0.603E+02   -.270E-03 0.266E+01 0.501E+01   -.312E-05 0.427E-01 -.508E-01
   -.653E-02 -.272E+03 0.214E+03   0.722E-02 0.285E+03 -.226E+03   -.379E-03 -.135E+02 0.118E+02   -.231E-05 0.317E-01 -.121E-01
   0.102E-02 -.272E+03 -.214E+03   -.117E-02 0.285E+03 0.226E+03   0.108E-03 -.135E+02 -.118E+02   -.216E-05 -.779E-02 0.297E-02
   0.724E-02 0.272E+03 0.214E+03   -.802E-02 -.285E+03 -.226E+03   0.441E-03 0.135E+02 0.118E+02   0.356E-05 0.617E-02 -.576E-02
   -.413E-02 0.272E+03 -.214E+03   0.462E-02 -.285E+03 0.226E+03   -.312E-03 0.135E+02 -.118E+02   0.144E-05 -.299E-01 0.918E-02
   0.389E-02 -.110E+03 0.582E+02   -.450E-02 0.109E+03 -.683E+02   0.521E-03 0.922E+00 0.103E+02   0.435E-06 -.343E-01 -.329E-01
   -.276E-02 0.110E+03 0.578E+02   0.323E-02 -.109E+03 -.680E+02   -.385E-03 -.921E+00 0.103E+02   0.120E-06 -.140E-01 0.297E-01
   -.364E-02 -.110E+03 -.579E+02   0.418E-02 0.109E+03 0.680E+02   -.468E-03 0.930E+00 -.103E+02   0.332E-06 0.106E-01 -.269E-01
   0.179E-02 0.110E+03 -.583E+02   -.203E-02 -.109E+03 0.684E+02   0.210E-03 -.932E+00 -.103E+02   -.665E-06 0.376E-01 0.358E-01
 -----------------------------------------------------------------------------------------------
   0.405E-03 0.158E-02 0.872E-02   0.113E-13 0.426E-13 0.142E-13   -.403E-03 -.106E-02 -.674E-02   -.188E-05 -.416E-03 -.190E-02
 
 
 POSITION                                       TOTAL-FORCE (eV/Angst)
 -----------------------------------------------------------------------------------
      0.72908      0.46027      8.05833         0.000071      0.053696      0.086310
      2.18724      4.12076      1.37640         0.000423     -0.044049     -0.085788
      2.18726      2.75097      6.09328        -0.000384      0.043805     -0.084615
      0.72910      1.83070      3.34137        -0.000268     -0.058287      0.085870
      0.72908      3.40276      5.31354         0.000313     -0.005789     -0.007288
      2.18725      1.11280      8.83793        -0.000044     -0.016383     -0.000073
      0.72909      3.46871      0.59674        -0.000333      0.010107     -0.005572
      2.18725      1.17814      4.12094         0.000177      0.013496      0.002146
      0.72908      0.68105      1.92011        -0.000096      0.041194      0.168410
      0.72908      1.60987      6.63702         0.000090     -0.043454      0.169691
      2.18725      2.97142      2.79741         0.000080      0.042995     -0.166531
      2.18725      3.90016      7.51416        -0.000029     -0.037332     -0.162560
 -----------------------------------------------------------------------------------
    total drift:                                0.000001      0.000109      0.000077


--------------------------------------------------------------------------------------------------------



  FREE ENERGIE OF THE ION-ELECTRON SYSTEM (eV)
  ---------------------------------------------------
  free  energy   TOTEN  =       -92.90436706 eV

  energy  without entropy=      -92.90436706  energy(sigma->0) =      -92.90436706
 
 d Force = 0.7071312E-02[-0.181E-03, 0.143E-01]  d Energy = 0.7218313E-02-0.147E-03
 d Force = 0.1988085E+02[ 0.198E+02, 0.200E+02]  d Ewald  = 0.1988443E+02-0.358E-02


--------------------------------------------------------------------------------------------------------


    POTLOK:  cpu time    0.5062: real time    0.5787


--------------------------------------------------------------------------------------------------------


 stress matrix after NEB project (eV)
     -3.32441      0.00025      0.00007
      0.00025     -2.22993     -0.01782
      0.00007     -0.01782      2.14473
  FORCES: max atom, RMS     0.175166    0.114855
  FORCE total and by dimension    0.397870    0.169691
  Stress total and by dimension    4.541458    3.324413


--------------------------------------------------------------------------------------------------------


    WAVPRE:  cpu time    0.0039: real time    0.0190
    FEWALD:  cpu time    0.0058: real time    0.0060

 real space projection operators:
  total allocation   :       4316.75 KBytes
  max/ min on nodes  :       1079.22       1079.16

    ORTHCH:  cpu time    0.0130: real time    0.0222
     LOOP+:  cpu time    5.5549: real time    7.7706


--------------------------------------- Iteration     33(   1)  ---------------------------------------


    POTLOK:  cpu time    0.0252: real time    0.0446
    SETDIJ:  cpu time    0.3040: real time    0.4954
     EDDAV:  cpu time    0.1776: real time    0.2211
       DOS:  cpu time    0.0003: real time    0.0003
    CHARGE:  cpu time    0.0079: real time    0.0079
    MIXING:  cpu time    0.0008: real time    0.0008
    --------------------------------------------
      LOOP:  cpu time    0.5159: real time    0.7703

 eigenvalue-minimisations  :   376
 total energy-change (2. order) : 0.7052830E-01  (-0.4278304E+00)
 number of electron      99.9999966 magnetization      11.9999997
 augmentation part       33.9373536 magnetization       8.0812355

 Broyden mixing:
  rms(total) = 0.10327E+00    rms(broyden)= 0.10285E+00
  rms(prec ) = 0.10633E+00
  weight for this iteration     100.00

 Free energy of the ion-electron system (eV)
  ---------------------------------------------------
  alpha Z        PSCENC =       441.37612112
  Ewald energy   TEWEN  =     -7480.31142723
  -Hartree energ DENC   =     -3617.43847979
  -exchange      EXHF   =         0.00000000
  -V(xc)+E(xc)   XCENC  =       500.77321194
  PAW double counting   =     12538.60385652   -12771.66514945
  entropy T*S    EENTRO =        -0.00000000
  eigenvalues    EBANDS =     -1263.22955150
  atomic energy  EATOM  =     11559.05757976
  Solvation  Ediel_sol  =         0.00000000
  ---------------------------------------------------
  free energy    TOTEN  =       -92.83383863 eV

  energy without entropy =      -92.83383863  energy(sigma->0) =      -92.83383863


--------------------------------------------------------------------------------------------------------




--------------------------------------- Iteration     33(   2)  ---------------------------------------


    POTLOK:  cpu time    0.0296: real time    0.0341
    SETDIJ:  cpu time    0.2669: real time    0.4606
    EDDIAG:  cpu time    0.0155: real time    0.0310
  RMM-DIIS:  cpu time    0.0528: real time    0.1060
    ORTHCH:  cpu time    0.0032: real time    0.0065
       DOS:  cpu time    0.0001: real time    0.0002
    CHARGE:  cpu time    0.0042: real time    0.0082
    MIXING:  cpu time    0.0004: real time    0.0010
    --------------------------------------------
      LOOP:  cpu time    0.3729: real time    0.6477

 eigenvalue-minimisations  :   338
 total energy-change (2. order) :-0.8132148E-01  (-0.7923530E-01)
 number of electron      99.9999967 magnetization      11.9999997
 augmentation part       33.9443791 magnetization       8.0846808

 Broyden mixing:
  rms(total) = 0.62928E-01    rms(broyden)= 0.62834E-01
  rms(prec ) = 0.65016E-01
  weight for this iteration     100.00

 eigenvalues of (default mixing * dielectric matrix)
  average eigenvalue GAMMA=   0.6218
  0.6218

 Free energy of the ion-electron system (eV)
  ---------------------------------------------------
  alpha Z        PSCENC =       441.37612112
  Ewald energy   TEWEN  =     -7480.31142723
  -Hartree energ DENC   =     -3617.30935607
  -exchange      EXHF   =         0.00000000
  -V(xc)+E(xc)   XCENC  =       500.75950388
  PAW double counting   =     12552.77598206   -12785.79874489
  entropy T*S    EENTRO =        -0.00000000
  eigenvalues    EBANDS =     -1263.46481874
  atomic energy  EATOM  =     11559.05757976
  Solvation  Ediel_sol  =         0.00000000
  ---------------------------------------------------
  free energy    TOTEN  =       -92.91516011 eV

  energy without entropy =      -92.91516011  energy(sigma->0) =      -92.91516011


--------------------------------------------------------------------------------------------------------




--------------------------------------- Iteration     33(   3)  ---------------------------------------


    POTLOK:  cpu time    0.0178: real time    0.0364
    SETDIJ:  cpu time    0.4895: real time    0.5364
    EDDIAG:  cpu time    0.0164: real time    0.0315
  RMM-DIIS:  cpu time    0.0887: real time    0.0944
    ORTHCH:  cpu time    0.0056: real time    0.0056
       DOS:  cpu time    0.0002: real time    0.0002
    CHARGE:  cpu time    0.0079: real time    0.0079
    MIXING:  cpu time    0.0010: real time    0.0010
    --------------------------------------------
      LOOP:  cpu time    0.6272: real time    0.7134

 eigenvalue-minimisations  :   303
 total energy-change (2. order) : 0.5958444E-02  (-0.2231607E-02)
 number of electron      99.9999966 magnetization      11.9999997
 augmentation part       33.9422485 magnetization       8.0848496

 Broyden mixing:
  rms(total) = 0.26494E-01    rms(broyden)= 0.26479E-01
  rms(prec ) = 0.29174E-01
  weight for this iteration     100.00

 eigenvalues of (default mixing * dielectric matrix)
  average eigenvalue GAMMA=   0.7385
  0.7768  0.7002

 Free energy of the ion-electron system (eV)
  ---------------------------------------------------
  alpha Z        PSCENC =       441.37612112
  Ewald energy   TEWEN  =     -7480.31142723
  -Hartree energ DENC   =     -3617.41068792
  -exchange      EXHF   =         0.00000000
  -V(xc)+E(xc)   XCENC  =       500.76686998
  PAW double counting   =     12551.43583707   -12784.48581447
  entropy T*S    EENTRO =        -0.00000000
  eigenvalues    EBANDS =     -1263.33767998
  atomic energy  EATOM  =     11559.05757976
  Solvation  Ediel_sol  =         0.00000000
  ---------------------------------------------------
  free energy    TOTEN  =       -92.90920167 eV

  energy without entropy =      -92.90920167  energy(sigma->0) =      -92.90920167


--------------------------------------------------------------------------------------------------------




--------------------------------------- Iteration     33(   4)  ---------------------------------------


    POTLOK:  cpu time    0.0349: real time    0.0350
    SETDIJ:  cpu time    0.4475: real time    0.5912
    EDDIAG:  cpu time    0.0288: real time    0.0289
  RMM-DIIS:  cpu time    0.1029: real time    0.1031
    ORTHCH:  cpu time    0.0056: real time    0.0056
       DOS:  cpu time    0.0003: real time    0.0003
    CHARGE:  cpu time    0.0079: real time    0.0079
    MIXING:  cpu time    0.0010: real time    0.0010
    --------------------------------------------
      LOOP:  cpu time    0.6289: real time    0.7729

 eigenvalue-minimisations  :   323
 total energy-change (2. order) : 0.3053334E-03  (-0.1685916E-03)
 number of electron      99.9999966 magnetization      11.9999997
 augmentation part       33.9428343 magnetization       8.0847177

 Broyden mixing:
  rms(total) = 0.20549E-01    rms(broyden)= 0.20546E-01
  rms(prec ) = 0.22335E-01
  weight for this iteration     100.00

 eigenvalues of (default mixing * dielectric matrix)
  average eigenvalue GAMMA=   1.0510
  0.6156  1.2686  1.2686

 Free energy of the ion-electron system (eV)
  ---------------------------------------------------
  alpha Z        PSCENC =       441.37612112
  Ewald energy   TEWEN  =     -7480.31142723
  -Hartree energ DENC   =     -3617.41361180
  -exchange      EXHF   =         0.00000000
  -V(xc)+E(xc)   XCENC  =       500.77087370
  PAW double counting   =     12550.07385958   -12783.13188069
  entropy T*S    EENTRO =        -0.00000000
  eigenvalues    EBANDS =     -1263.33041077
  atomic energy  EATOM  =     11559.05757976
  Solvation  Ediel_sol  =         0.00000000
  ---------------------------------------------------
  free energy    TOTEN  =       -92.90889633 eV

  energy without entropy =      -92.90889633  energy(sigma->0) =      -92.90889633


--------------------------------------------------------------------------------------------------------




--------------------------------------- Iteration     33(   5)  ---------------------------------------


    POTLOK:  cpu time    0.0349: real time    0.0349
    SETDIJ:  cpu time    0.3445: real time    0.4938
    EDDIAG:  cpu time    0.0155: real time    0.0298
  RMM-DIIS:  cpu time    0.0449: real time    0.0867
    ORTHCH:  cpu time    0.0029: real time    0.0055
       DOS:  cpu time    0.0001: real time    0.0003
    CHARGE:  cpu time    0.0042: real time    0.0081
    MIXING:  cpu time    0.0005: real time    0.0012
    --------------------------------------------
      LOOP:  cpu time    0.4473: real time    0.6603

 eigenvalue-minimisations  :   290
 total energy-change (2. order) : 0.2406809E-03  (-0.8268611E-04)
 number of electron      99.9999966 magnetization      11.9999997
 augmentation part       33.9396436 magnetization       8.0844074

 Broyden mixing:
  rms(total) = 0.87424E-02    rms(broyden)= 0.87395E-02
  rms(prec ) = 0.98646E-02
  weight for this iteration     100.00

 eigenvalues of (default mixing * dielectric matrix)
  average eigenvalue GAMMA=   1.0199
  1.6315  1.2913  0.6120  0.5450

 Free energy of the ion-electron system (eV)
  ---------------------------------------------------
  alpha Z        PSCENC =       441.37612112
  Ewald energy   TEWEN  =     -7480.31142723
  -Hartree energ DENC   =     -3617.52469743
  -exchange      EXHF   =         0.00000000
  -V(xc)+E(xc)   XCENC  =       500.77705201
  PAW double counting   =     12547.70146948   -12780.78003263
  entropy T*S    EENTRO =        -0.00000000
  eigenvalues    EBANDS =     -1263.20472073
  atomic energy  EATOM  =     11559.05757976
  Solvation  Ediel_sol  =         0.00000000
  ---------------------------------------------------
  free energy    TOTEN  =       -92.90865565 eV

  energy without entropy =      -92.90865565  energy(sigma->0) =      -92.90865565


--------------------------------------------------------------------------------------------------------




--------------------------------------- Iteration     33(   6)  ---------------------------------------


    POTLOK:  cpu time    0.0327: real time    0.0359
