PROCAR lm decomposed
# of k-points:    1         # of bands:   72         # of ions:   12

 k-point     1 :    0.00000000 0.00000000 0.00000000     weight = 1.00000000

band     1 # energy  -46.26181684 # occ.  1.00000000
 
ion      s     py     pz     px    dxy    dyz    dz2    dxz  x2-y2    tot
    1  0.000  0.040  0.049  0.000  0.000  0.000  0.000  0.000  0.000  0.089
    2  0.000  0.040  0.049  0.000  0.000  0.000  0.000  0.000  0.000  0.089
    3  0.000  0.161  0.237  0.000  0.000  0.000  0.000  0.000  0.000  0.398
    4  0.000  0.169  0.248  0.000  0.000  0.000  0.000  0.000  0.000  0.416
    5  0.000  0.000  0.000  0.000  0.000  0.000  0.000  0.000  0.000  0.000
    6  0.000  0.000  0.000  0.000  0.000  0.000  0.000  0.000  0.000  0.000
    7  0.000  0.000  0.000  0.000  0.000  0.000  0.000  0.000  0.000  0.000
    8  0.000  0.000  0.000  0.000  0.000  0.000  0.000  0.000  0.000  0.000
    9  0.000  0.000  0.000  0.000  0.000  0.000  0.000  0.000  0.000  0.001
   10  0.000  0.000  0.000  0.000  0.000  0.000  0.000  0.000  0.000  0.000
   11  0.000  0.000  0.000  0.000  0.000  0.000  0.000  0.000  0.000  0.000
   12  0.000  0.000  0.000  0.000  0.000  0.000  0.000  0.000  0.000  0.001
tot    0.001  0.410  0.583  0.000  0.000  0.000  0.000  0.000  0.000  0.994
 
band     2 # energy  -46.26044287 # occ.  1.00000000
 
ion      s     py     pz     px    dxy    dyz    dz2    dxz  x2-y2    tot
    1  0.000  0.156  0.254  0.000  0.000  0.000  0.000  0.000  0.000  0.410
    2  0.000  0.153  0.250  0.000  0.000  0.000  0.000  0.000  0.000  0.404
    3  0.000  0.029  0.058  0.000  0.000  0.000  0.000  0.000  0.000  0.087
    4  0.000  0.031  0.061  0.000  0.000  0.000  0.000  0.000  0.000  0.091
    5  0.000  0.000  0.000  0.000  0.000  0.000  0.000  0.000  0.000  0.000
    6  0.000  0.000  0.000  0.000  0.000  0.000  0.000  0.000  0.000  0.000
    7  0.000  0.000  0.000  0.000  0.000  0.000  0.000  0.000  0.000  0.000
    8  0.000  0.000  0.000  0.000  0.000  0.000  0.000  0.000  0.000  0.000
    9  0.000  0.000  0.000  0.000  0.000  0.000  0.000  0.000  0.000  0.000
   10  0.000  0.000  0.000  0.000  0.000  0.000  0.000  0.000  0.000  0.001
   11  0.000  0.000  0.000  0.000  0.000  0.000  0.000  0.000  0.000  0.001
   12  0.000  0.000  0.000  0.000  0.000  0.000  0.000  0.000  0.000  0.000
tot    0.001  0.370  0.623  0.000  0.000  0.000  0.000  0.000  0.000  0.994
 
band     3 # energy  -46.24838033 # occ.  1.00000000
 
ion      s     py     pz     px    dxy    dyz    dz2    dxz  x2-y2    tot
    1  0.000  0.061  0.071  0.000  0.000  0.000  0.000  0.000  0.000  0.132
    2  0.000  0.062  0.072  0.000  0.000  0.000  0.000  0.000  0.000  0.134
    3  0.000  0.161  0.211  0.000  0.000  0.000  0.000  0.000  0.000  0.372
    4  0.000  0.154  0.201  0.000  0.000  0.000  0.000  0.000  0.000  0.354
    5  0.000  0.000  0.000  0.000  0.000  0.000  0.000  0.000  0.000  0.000
    6  0.000  0.000  0.000  0.000  0.000  0.000  0.000  0.000  0.000  0.000
    7  0.000  0.000  0.000  0.000  0.000  0.000  0.000  0.000  0.000  0.000
    8  0.000  0.000  0.000  0.000  0.000  0.000  0.000  0.000  0.000  0.000
    9  0.000  0.000  0.000  0.000  0.000  0.000  0.000  0.000  0.000  0.000
   10  0.000  0.000  0.000  0.000  0.000  0.000  0.000  0.000  0.000  0.000
   11  0.000  0.000  0.000  0.000  0.000  0.000  0.000  0.000  0.000  0.000
   12  0.000  0.000  0.000  0.000  0.000  0.000  0.000  0.000  0.000  0.001
tot    0.001  0.438  0.556  0.000  0.000  0.000  0.000  0.000  0.000  0.994
 
band     4 # energy  -46.24649548 # occ.  1.00000000
 
ion      s     py     pz     px    dxy    dyz    dz2    dxz  x2-y2    tot
    1  0.000  0.144  0.217  0.000  0.000  0.000  0.000  0.000  0.000  0.361
    2  0.000  0.146  0.220  0.000  0.000  0.000  0.000  0.000  0.000  0.366
    3  0.000  0.050  0.086  0.000  0.000  0.000  0.000  0.000  0.000  0.136
    4  0.000  0.048  0.082  0.000  0.000  0.000  0.000  0.000  0.000  0.130
    5  0.000  0.000  0.000  0.000  0.000  0.000  0.000  0.000  0.000  0.000
    6  0.000  0.000  0.000  0.000  0.000  0.000  0.000  0.000  0.000  0.000
    7  0.000  0.000  0.000  0.000  0.000  0.000  0.000  0.000  0.000  0.000
    8  0.000  0.000  0.000  0.000  0.000  0.000  0.000  0.000  0.000  0.000
    9  0.000  0.000  0.000  0.000  0.000  0.000  0.000  0.000  0.000  0.000
   10  0.000  0.000  0.000  0.000  0.000  0.000  0.000  0.000  0.000  0.000
   11  0.000  0.000  0.000  0.000  0.000  0.000  0.000  0.000  0.000  0.000
   12  0.000  0.000  0.000  0.000  0.000  0.000  0.000  0.000  0.000  0.000
tot    0.001  0.389  0.605  0.000  0.000  0.000  0.000  0.000  0.000  0.994
 
band     5 # energy  -46.16455378 # occ.  1.00000000
 
ion      s     py     pz     px    dxy    dyz    dz2    dxz  x2-y2    tot
    1  0.000  0.000  0.000  0.206  0.000  0.000  0.000  0.000  0.000  0.206
    2  0.000  0.000  0.000  0.203  0.000  0.000  0.000  0.000  0.000  0.203
    3  0.000  0.000  0.000  0.272  0.000  0.000  0.000  0.000  0.000  0.272
    4  0.000  0.000  0.000  0.312  0.000  0.000  0.000  0.000  0.000  0.312
    5  0.000  0.000  0.000  0.000  0.000  0.000  0.000  0.000  0.000  0.000
    6  0.000  0.000  0.000  0.000  0.000  0.000  0.000  0.000  0.000  0.000
    7  0.000  0.000  0.000  0.000  0.000  0.000  0.000  0.000  0.000  0.000
    8  0.000  0.000  0.000  0.000  0.000  0.000  0.000  0.000  0.000  0.000
    9  0.000  0.000  0.000  0.000  0.000  0.000  0.000  0.000  0.000  0.000
   10  0.000  0.000  0.000  0.000  0.000  0.000  0.000  0.000  0.000  0.000
   11  0.000  0.000  0.000  0.000  0.000  0.000  0.000  0.000  0.000  0.000
   12  0.000  0.000  0.000  0.000  0.000  0.000  0.000  0.000  0.000  0.000
tot    0.000  0.000  0.000  0.995  0.000  0.000  0.000  0.000  0.000  0.995
 
band     6 # energy  -46.16157614 # occ.  1.00000000
 
ion      s     py     pz     px    dxy    dyz    dz2    dxz  x2-y2    tot
    1  0.000  0.000  0.000  0.250  0.000  0.000  0.000  0.000  0.000  0.250
    2  0.000  0.000  0.000  0.161  0.000  0.000  0.000  0.000  0.000  0.161
    3  0.000  0.000  0.000  0.265  0.000  0.000  0.000  0.000  0.000  0.265
    4  0.000  0.000  0.000  0.317  0.000  0.000  0.000  0.000  0.000  0.317
    5  0.000  0.000  0.000  0.000  0.000  0.000  0.000  0.000  0.000  0.000
    6  0.000  0.000  0.000  0.000  0.000  0.000  0.000  0.000  0.000  0.000
    7  0.000  0.000  0.000  0.000  0.000  0.000  0.000  0.000  0.000  0.000
    8  0.000  0.000  0.000  0.000  0.000  0.000  0.000  0.000  0.000  0.000
    9  0.000  0.000  0.000  0.000  0.000  0.000  0.000  0.000  0.000  0.000
   10  0.000  0.000  0.000  0.000  0.000  0.000  0.000  0.000  0.000  0.000
   11  0.000  0.000  0.000  0.000  0.000  0.000  0.000  0.000  0.000  0.000
   12  0.000  0.000  0.000  0.000  0.000  0.000  0.000  0.000  0.000  0.000
tot    0.000  0.000  0.000  0.995  0.000  0.000  0.000  0.000  0.000  0.995
 
band     7 # energy  -46.15958389 # occ.  1.00000000
 
ion      s     py     pz     px    dxy    dyz    dz2    dxz  x2-y2    tot
    1  0.000  0.000  0.000  0.254  0.000  0.000  0.000  0.000  0.000  0.254
    2  0.000  0.000  0.000  0.328  0.000  0.000  0.000  0.000  0.000  0.328
    3  0.000  0.000  0.000  0.242  0.000  0.000  0.000  0.000  0.000  0.242
    4  0.000  0.000  0.000  0.170  0.000  0.000  0.000  0.000  0.000  0.170
    5  0.000  0.000  0.000  0.000  0.000  0.000  0.000  0.000  0.000  0.000
    6  0.000  0.000  0.000  0.000  0.000  0.000  0.000  0.000  0.000  0.000
    7  0.000  0.000  0.000  0.001  0.000  0.000  0.000  0.000  0.000  0.001
    8  0.000  0.000  0.000  0.000  0.000  0.000  0.000  0.000  0.000  0.000
    9  0.000  0.000  0.000  0.000  0.000  0.000  0.000  0.000  0.000  0.000
   10  0.000  0.000  0.000  0.000  0.000  0.000  0.000  0.000  0.000  0.000
   11  0.000  0.000  0.000  0.000  0.000  0.000  0.000  0.000  0.000  0.000
   12  0.000  0.000  0.000  0.000  0.000  0.000  0.000  0.000  0.000  0.000
tot    0.000  0.000  0.000  0.995  0.000  0.000  0.000  0.000  0.000  0.995
 
band     8 # energy  -46.15669103 # occ.  1.00000000
 
ion      s     py     pz     px    dxy    dyz    dz2    dxz  x2-y2    tot
    1  0.000  0.000  0.000  0.284  0.000  0.000  0.000  0.000  0.000  0.284
    2  0.000  0.000  0.000  0.301  0.000  0.000  0.000  0.000  0.000  0.301
    3  0.000  0.000  0.000  0.214  0.000  0.000  0.000  0.000  0.000  0.214
    4  0.000  0.000  0.000  0.195  0.000  0.000  0.000  0.000  0.000  0.195
    5  0.000  0.000  0.000  0.000  0.000  0.000  0.000  0.000  0.000  0.000
    6  0.000  0.000  0.000  0.000  0.000  0.000  0.000  0.000  0.000  0.000
    7  0.000  0.000  0.000  0.000  0.000  0.000  0.000  0.000  0.000  0.000
    8  0.000  0.000  0.000  0.000  0.000  0.000  0.000  0.000  0.000  0.000
    9  0.000  0.000  0.000  0.000  0.000  0.000  0.000  0.000  0.000  0.000
   10  0.000  0.000  0.000  0.000  0.000  0.000  0.000  0.000  0.000  0.000
   11  0.000  0.000  0.000  0.000  0.000  0.000  0.000  0.000  0.000  0.000
   12  0.000  0.000  0.000  0.000  0.000  0.000  0.000  0.000  0.000  0.000
tot    0.000  0.000  0.000  0.995  0.000  0.000  0.000  0.000  0.000  0.995
 
band     9 # energy  -45.97537524 # occ.  1.00000000
 
ion      s     py     pz     px    dxy    dyz    dz2    dxz  x2-y2    tot
    1  0.000  0.104  0.076  0.000  0.000  0.000  0.000  0.000  0.000  0.180
    2  0.000  0.122  0.092  0.000  0.000  0.000  0.000  0.000  0.000  0.214
    3  0.000  0.146  0.103  0.000  0.000  0.000  0.000  0.000  0.000  0.248
    4  0.000  0.205  0.145  0.000  0.000  0.000  0.000  0.000  0.000  0.350
    5  0.000  0.000  0.000  0.000  0.000  0.000  0.000  0.000  0.000  0.000
    6  0.000  0.000  0.000  0.000  0.000  0.000  0.000  0.000  0.000  0.000
    7  0.000  0.000  0.000  0.000  0.000  0.000  0.000  0.000  0.000  0.000
    8  0.000  0.000  0.000  0.000  0.000  0.000  0.000  0.000  0.000  0.001
    9  0.000  0.000  0.000  0.000  0.000  0.000  0.000  0.000  0.000  0.000
   10  0.000  0.000  0.000  0.000  0.000  0.000  0.000  0.000  0.000  0.000
   11  0.000  0.000  0.000  0.000  0.000  0.000  0.000  0.000  0.000  0.000
   12  0.000  0.000  0.000  0.000  0.000  0.000  0.000  0.000  0.000  0.000
tot    0.002  0.577  0.416  0.000  0.000  0.000  0.000  0.000  0.000  0.994
 
band    10 # energy  -45.97425178 # occ.  1.00000000
 
ion      s     py     pz     px    dxy    dyz    dz2    dxz  x2-y2    tot
    1  0.000  0.124  0.101  0.000  0.000  0.000  0.000  0.000  0.000  0.225
    2  0.000  0.080  0.068  0.000  0.000  0.000  0.000  0.000  0.000  0.148
    3  0.000  0.190  0.148  0.000  0.000  0.000  0.000  0.000  0.000  0.338
    4  0.000  0.158  0.123  0.000  0.000  0.000  0.000  0.000  0.000  0.281
    5  0.000  0.000  0.000  0.000  0.000  0.000  0.000  0.000  0.000  0.000
    6  0.000  0.000  0.000  0.000  0.000  0.000  0.000  0.000  0.000  0.000
    7  0.000  0.000  0.000  0.000  0.000  0.000  0.000  0.000  0.000  0.000
    8  0.000  0.000  0.000  0.000  0.000  0.000  0.000  0.000  0.000  0.000
    9  0.000  0.000  0.000  0.000  0.000  0.000  0.000  0.000  0.000  0.000
   10  0.000  0.000  0.000  0.000  0.000  0.000  0.000  0.000  0.000  0.000
   11  0.000  0.000  0.000  0.000  0.000  0.000  0.000  0.000  0.000  0.000
   12  0.000  0.000  0.000  0.000  0.000  0.000  0.000  0.000  0.000  0.000
tot    0.002  0.552  0.440  0.000  0.000  0.000  0.000  0.000  0.000  0.994
 
band    11 # energy  -45.97076390 # occ.  1.00000000
 
ion      s     py     pz     px    dxy    dyz    dz2    dxz  x2-y2    tot
    1  0.000  0.102  0.058  0.000  0.000  0.000  0.000  0.000  0.000  0.159
    2  0.000  0.278  0.168  0.000  0.000  0.000  0.000  0.000  0.000  0.446
    3  0.000  0.079  0.044  0.000  0.000  0.000  0.000  0.000  0.000  0.123
    4  0.000  0.168  0.095  0.000  0.000  0.000  0.000  0.000  0.000  0.263
    5  0.000  0.000  0.000  0.000  0.000  0.000  0.000  0.000  0.000  0.000
    6  0.000  0.000  0.000  0.000  0.000  0.000  0.000  0.000  0.000  0.000
    7  0.001  0.000  0.000  0.000  0.000  0.000  0.000  0.000  0.000  0.001
    8  0.000  0.000  0.000  0.000  0.000  0.000  0.000  0.000  0.000  0.000
    9  0.000  0.000  0.000  0.000  0.000  0.000  0.000  0.000  0.000  0.000
   10  0.000  0.000  0.000  0.000  0.000  0.000  0.000  0.000  0.000  0.000
   11  0.000  0.000  0.000  0.000  0.000  0.000  0.000  0.000  0.000  0.000
   12  0.000  0.000  0.000  0.000  0.000  0.000  0.000  0.000  0.000  0.000
tot    0.002  0.628  0.365  0.000  0.000  0.000  0.000  0.000  0.000  0.994
 
band    12 # energy  -45.97060531 # occ.  1.00000000
 
ion      s     py     pz     px    dxy    dyz    dz2    dxz  x2-y2    tot
    1  0.000  0.261  0.166  0.000  0.000  0.000  0.000  0.000  0.000  0.428
    2  0.000  0.110  0.074  0.000  0.000  0.000  0.000  0.000  0.000  0.184
    3  0.000  0.176  0.106  0.000  0.000  0.000  0.000  0.000  0.000  0.282
    4  0.000  0.061  0.038  0.000  0.000  0.000  0.000  0.000  0.000  0.099
    5  0.000  0.000  0.000  0.000  0.000  0.000  0.000  0.000  0.000  0.000
    6  0.001  0.000  0.000  0.000  0.000  0.000  0.000  0.000  0.000  0.001
    7  0.000  0.000  0.000  0.000  0.000  0.000  0.000  0.000  0.000  0.000
    8  0.000  0.000  0.000  0.000  0.000  0.000  0.000  0.000  0.000  0.000
    9  0.000  0.000  0.000  0.000  0.000  0.000  0.000  0.000  0.000  0.000
   10  0.000  0.000  0.000  0.000  0.000  0.000  0.000  0.000  0.000  0.000
   11  0.000  0.000  0.000  0.000  0.000  0.000  0.000  0.000  0.000  0.000
   12  0.000  0.000  0.000  0.000  0.000  0.000  0.000  0.000  0.000  0.000
tot    0.002  0.608  0.385  0.000  0.000  0.000  0.000  0.000  0.000  0.994
 
band    13 # energy  -15.64254936 # occ.  1.00000000
 
ion      s     py     pz     px    dxy    dyz    dz2    dxz  x2-y2    tot
    1  0.026  0.000  0.000  0.000  0.000  0.000  0.001  0.000  0.003  0.030
    2  0.026  0.000  0.000  0.000  0.000  0.000  0.001  0.000  0.003  0.030
    3  0.026  0.000  0.000  0.000  0.000  0.000  0.001  0.000  0.003  0.030
    4  0.026  0.000  0.000  0.000  0.000  0.000  0.001  0.000  0.003  0.030
    5  0.103  0.001  0.001  0.000  0.000  0.000  0.000  0.000  0.000  0.105
    6  0.103  0.001  0.001  0.000  0.000  0.000  0.000  0.000  0.000  0.105
    7  0.103  0.001  0.001  0.000  0.000  0.000  0.000  0.000  0.000  0.105
    8  0.103  0.001  0.001  0.000  0.000  0.000  0.000  0.000  0.000  0.105
    9  0.072  0.000  0.000  0.000  0.000  0.000  0.000  0.000  0.000  0.072
   10  0.072  0.000  0.000  0.000  0.000  0.000  0.000  0.000  0.000  0.072
   11  0.072  0.000  0.000  0.000  0.000  0.000  0.000  0.000  0.000  0.072
   12  0.072  0.000  0.000  0.000  0.000  0.000  0.000  0.000  0.000  0.072
tot    0.805  0.005  0.003  0.000  0.000  0.000  0.003  0.000  0.011  0.827
 
band    14 # energy  -15.14186706 # occ.  1.00000000
 
ion      s     py     pz     px    dxy    dyz    dz2    dxz  x2-y2    tot
    1  0.024  0.000  0.000  0.000  0.000  0.000  0.001  0.000  0.003  0.029
    2  0.024  0.000  0.000  0.000  0.000  0.000  0.001  0.000  0.003  0.029
    3  0.024  0.000  0.000  0.000  0.000  0.000  0.001  0.000  0.003  0.029
    4  0.024  0.000  0.000  0.000  0.000  0.000  0.001  0.000  0.003  0.029
    5  0.084  0.001  0.001  0.000  0.000  0.000  0.000  0.000  0.000  0.086
    6  0.084  0.001  0.001  0.000  0.000  0.000  0.000  0.000  0.000  0.086
    7  0.084  0.001  0.001  0.000  0.000  0.000  0.000  0.000  0.000  0.086
    8  0.084  0.001  0.001  0.000  0.000  0.000  0.000  0.000  0.000  0.086
    9  0.097  0.000  0.000  0.000  0.000  0.000  0.000  0.000  0.000  0.097
   10  0.097  0.000  0.000  0.000  0.000  0.000  0.000  0.000  0.000  0.097
   11  0.097  0.000  0.000  0.000  0.000  0.000  0.000  0.000  0.000  0.097
   12  0.097  0.000  0.000  0.000  0.000  0.000  0.000  0.000  0.000  0.097
tot    0.821  0.005  0.007  0.000  0.000  0.001  0.005  0.000  0.011  0.851
 
band    15 # energy  -15.04714747 # occ.  1.00000000
 
ion      s     py     pz     px    dxy    dyz    dz2    dxz  x2-y2    tot
    1  0.015  0.000  0.003  0.000  0.000  0.003  0.002  0.000  0.007  0.030
    2  0.015  0.000  0.003  0.000  0.000  0.003  0.002  0.000  0.007  0.030
    3  0.015  0.000  0.003  0.000  0.000  0.003  0.002  0.000  0.007  0.030
    4  0.015  0.000  0.003  0.000  0.000  0.003  0.002  0.000  0.007  0.030
    5  0.153  0.001  0.001  0.000  0.000  0.000  0.000  0.000  0.000  0.155
    6  0.153  0.001  0.001  0.000  0.000  0.000  0.000  0.000  0.000  0.155
    7  0.153  0.001  0.001  0.000  0.000  0.000  0.000  0.000  0.000  0.155
    8  0.153  0.001  0.001  0.000  0.000  0.000  0.000  0.000  0.000  0.155
    9  0.030  0.000  0.000  0.000  0.000  0.000  0.000  0.000  0.000  0.031
   10  0.030  0.000  0.000  0.000  0.000  0.000  0.000  0.000  0.000  0.031
   11  0.030  0.000  0.000  0.000  0.000  0.000  0.000  0.000  0.000  0.031
   12  0.030  0.000  0.000  0.000  0.000  0.000  0.000  0.000  0.000  0.031
tot    0.793  0.006  0.017  0.000  0.000  0.011  0.009  0.000  0.027  0.863
 
band    16 # energy  -14.50037755 # occ.  1.00000000
 
ion      s     py     pz     px    dxy    dyz    dz2    dxz  x2-y2    tot
    1  0.012  0.000  0.002  0.000  0.000  0.006  0.004  0.000  0.009  0.033
    2  0.012  0.000  0.002  0.000  0.000  0.006  0.004  0.000  0.009  0.033
    3  0.012  0.000  0.002  0.000  0.000  0.006  0.004  0.000  0.009  0.033
    4  0.012  0.000  0.002  0.000  0.000  0.006  0.004  0.000  0.009  0.033
    5  0.148  0.001  0.001  0.000  0.000  0.000  0.000  0.000  0.000  0.150
    6  0.147  0.001  0.001  0.000  0.000  0.000  0.000  0.000  0.000  0.150
    7  0.147  0.001  0.001  0.000  0.000  0.000  0.000  0.000  0.000  0.150
    8  0.148  0.001  0.001  0.000  0.000  0.000  0.000  0.000  0.000  0.150
    9  0.044  0.000  0.000  0.000  0.000  0.000  0.000  0.000  0.000  0.045
   10  0.044  0.000  0.000  0.000  0.000  0.000  0.000  0.000  0.000  0.045
   11  0.044  0.000  0.000  0.000  0.000  0.000  0.000  0.000  0.000  0.045
   12  0.044  0.000  0.000  0.000  0.000  0.000  0.000  0.000  0.000  0.045
tot    0.813  0.006  0.013  0.000  0.000  0.024  0.017  0.000  0.036  0.908
 
band    17 # energy  -13.43999611 # occ.  1.00000000
 
ion      s     py     pz     px    dxy    dyz    dz2    dxz  x2-y2    tot
    1  0.001  0.009  0.000  0.000  0.000  0.003  0.001  0.000  0.000  0.015
    2  0.001  0.009  0.000  0.000  0.000  0.003  0.001  0.000  0.000  0.015
    3  0.001  0.010  0.000  0.000  0.000  0.003  0.001  0.000  0.000  0.015
    4  0.001  0.010  0.000  0.000  0.000  0.003  0.001  0.000  0.000  0.015
    5  0.049  0.000  0.000  0.000  0.000  0.000  0.000  0.000  0.000  0.049
    6  0.047  0.000  0.000  0.000  0.000  0.000  0.000  0.000  0.000  0.047
    7  0.047  0.000  0.000  0.000  0.000  0.000  0.000  0.000  0.000  0.047
    8  0.049  0.000  0.000  0.000  0.000  0.000  0.000  0.000  0.000  0.049
    9  0.151  0.000  0.000  0.000  0.000  0.000  0.000  0.000  0.000  0.152
   10  0.154  0.000  0.000  0.000  0.000  0.000  0.000  0.000  0.000  0.154
   11  0.155  0.000  0.000  0.000  0.000  0.000  0.000  0.000  0.000  0.156
   12  0.150  0.000  0.000  0.000  0.000  0.000  0.000  0.000  0.000  0.151
tot    0.805  0.038  0.002  0.000  0.000  0.013  0.005  0.000  0.000  0.863
 
band    18 # energy  -13.43409192 # occ.  1.00000000
 
ion      s     py     pz     px    dxy    dyz    dz2    dxz  x2-y2    tot
    1  0.000  0.002  0.007  0.000  0.000  0.004  0.000  0.000  0.004  0.017
    2  0.000  0.002  0.007  0.000  0.000  0.004  0.000  0.000  0.004  0.017
    3  0.000  0.002  0.007  0.000  0.000  0.004  0.000  0.000  0.004  0.017
    4  0.000  0.002  0.007  0.000  0.000  0.004  0.000  0.000  0.004  0.017
    5  0.111  0.000  0.000  0.000  0.000  0.000  0.000  0.000  0.000  0.111
    6  0.114  0.000  0.000  0.000  0.000  0.000  0.000  0.000  0.000  0.114
    7  0.114  0.000  0.000  0.000  0.000  0.000  0.000  0.000  0.000  0.114
    8  0.112  0.000  0.000  0.000  0.000  0.000  0.000  0.000  0.000  0.112
    9  0.091  0.000  0.000  0.000  0.000  0.000  0.000  0.000  0.000  0.091
   10  0.087  0.000  0.000  0.000  0.000  0.000  0.000  0.000  0.000  0.087
   11  0.088  0.000  0.000  0.000  0.000  0.000  0.000  0.000  0.000  0.088
   12  0.091  0.000  0.000  0.000  0.000  0.000  0.000  0.000  0.000  0.091
tot    0.806  0.009  0.028  0.000  0.000  0.014  0.002  0.000  0.018  0.877
 
band    19 # energy  -13.39041541 # occ.  1.00000000
 
ion      s     py     pz     px    dxy    dyz    dz2    dxz  x2-y2    tot
    1  0.001  0.009  0.000  0.000  0.000  0.005  0.002  0.000  0.000  0.017
    2  0.001  0.008  0.000  0.000  0.000  0.005  0.002  0.000  0.000  0.017
    3  0.001  0.009  0.000  0.000  0.000  0.005  0.002  0.000  0.000  0.017
    4  0.001  0.008  0.000  0.000  0.000  0.005  0.002  0.000  0.000  0.017
    5  0.034  0.000  0.000  0.000  0.000  0.000  0.000  0.000  0.000  0.034
    6  0.034  0.000  0.000  0.000  0.000  0.000  0.000  0.000  0.000  0.034
    7  0.034  0.000  0.000  0.000  0.000  0.000  0.000  0.000  0.000  0.034
    8  0.033  0.000  0.000  0.000  0.000  0.000  0.000  0.000  0.000  0.033
    9  0.167  0.000  0.000  0.000  0.000  0.000  0.000  0.000  0.000  0.167
   10  0.168  0.000  0.000  0.000  0.000  0.000  0.000  0.000  0.000  0.168
   11  0.166  0.000  0.000  0.000  0.000  0.000  0.000  0.000  0.000  0.167
   12  0.167  0.000  0.000  0.000  0.000  0.000  0.000  0.000  0.000  0.168
tot    0.806  0.034  0.002  0.000  0.000  0.021  0.008  0.000  0.001  0.871
 
band    20 # energy  -13.35846080 # occ.  1.00000000
 
ion      s     py     pz     px    dxy    dyz    dz2    dxz  x2-y2    tot
    1  0.000  0.001  0.009  0.000  0.000  0.002  0.000  0.000  0.003  0.015
    2  0.000  0.001  0.009  0.000  0.000  0.002  0.000  0.000  0.003  0.015
    3  0.000  0.001  0.009  0.000  0.000  0.002  0.000  0.000  0.003  0.015
    4  0.000  0.001  0.009  0.000  0.000  0.002  0.000  0.000  0.003  0.015
    5  0.087  0.000  0.000  0.000  0.000  0.000  0.000  0.000  0.000  0.087
    6  0.086  0.000  0.000  0.000  0.000  0.000  0.000  0.000  0.000  0.087
    7  0.086  0.000  0.000  0.000  0.000  0.000  0.000  0.000  0.000  0.086
    8  0.086  0.000  0.000  0.000  0.000  0.000  0.000  0.000  0.000  0.086
    9  0.115  0.000  0.000  0.000  0.000  0.000  0.000  0.000  0.000  0.116
   10  0.116  0.000  0.000  0.000  0.000  0.000  0.000  0.000  0.000  0.117
   11  0.115  0.000  0.000  0.000  0.000  0.000  0.000  0.000  0.000  0.116
   12  0.115  0.000  0.000  0.000  0.000  0.000  0.000  0.000  0.000  0.116
tot    0.808  0.005  0.037  0.000  0.000  0.008  0.001  0.000  0.011  0.870
 
band    21 # energy   -2.88879298 # occ.  1.00000000
 
ion      s     py     pz     px    dxy    dyz    dz2    dxz  x2-y2    tot
    1  0.015  0.000  0.003  0.000  0.000  0.012  0.001  0.000  0.046  0.077
    2  0.015  0.000  0.003  0.000  0.000  0.012  0.001  0.000  0.046  0.077
    3  0.015  0.000  0.003  0.000  0.000  0.012  0.001  0.000  0.046  0.077
    4  0.015  0.000  0.003  0.000  0.000  0.012  0.001  0.000  0.046  0.077
    5  0.005  0.032  0.022  0.000  0.000  0.000  0.000  0.000  0.000  0.059
    6  0.005  0.032  0.022  0.000  0.000  0.000  0.000  0.000  0.000  0.059
    7  0.005  0.032  0.022  0.000  0.000  0.000  0.000  0.000  0.000  0.059
    8  0.005  0.032  0.022  0.000  0.000  0.000  0.000  0.000  0.000  0.059
    9  0.000  0.046  0.005  0.000  0.000  0.000  0.000  0.000  0.000  0.052
   10  0.000  0.046  0.005  0.000  0.000  0.000  0.000  0.000  0.000  0.052
   11  0.000  0.046  0.005  0.000  0.000  0.000  0.000  0.000  0.000  0.052
   12  0.000  0.046  0.005  0.000  0.000  0.000  0.000  0.000  0.000  0.052
tot    0.081  0.315  0.118  0.000  0.000  0.049  0.003  0.000  0.184  0.750
 
band    22 # energy   -2.77461869 # occ.  1.00000000
 
ion      s     py     pz     px    dxy    dyz    dz2    dxz  x2-y2    tot
    1  0.020  0.000  0.003  0.000  0.000  0.032  0.013  0.000  0.017  0.085
    2  0.020  0.000  0.003  0.000  0.000  0.032  0.013  0.000  0.017  0.085
    3  0.020  0.000  0.003  0.000  0.000  0.032  0.013  0.000  0.017  0.085
    4  0.020  0.000  0.003  0.000  0.000  0.032  0.013  0.000  0.017  0.085
    5  0.006  0.010  0.037  0.000  0.000  0.000  0.000  0.000  0.000  0.053
    6  0.006  0.010  0.037  0.000  0.000  0.000  0.000  0.000  0.000  0.053
    7  0.006  0.010  0.037  0.000  0.000  0.000  0.000  0.000  0.000  0.053
    8  0.006  0.010  0.037  0.000  0.000  0.000  0.000  0.000  0.000  0.053
    9  0.000  0.029  0.031  0.000  0.000  0.000  0.000  0.000  0.000  0.060
   10  0.000  0.029  0.030  0.000  0.000  0.000  0.000  0.000  0.000  0.060
   11  0.000  0.029  0.031  0.000  0.000  0.000  0.000  0.000  0.000  0.060
   12  0.000  0.029  0.031  0.000  0.000  0.000  0.000  0.000  0.000  0.060
tot    0.108  0.158  0.280  0.000  0.000  0.127  0.050  0.000  0.069  0.793
 
band    23 # energy   -2.71550008 # occ.  1.00000000
 
ion      s     py     pz     px    dxy    dyz    dz2    dxz  x2-y2    tot
    1  0.001  0.002  0.001  0.000  0.000  0.004  0.031  0.000  0.063  0.101
    2  0.001  0.002  0.001  0.000  0.000  0.004  0.031  0.000  0.063  0.101
    3  0.001  0.002  0.001  0.000  0.000  0.004  0.031  0.000  0.063  0.101
    4  0.001  0.002  0.001  0.000  0.000  0.004  0.031  0.000  0.063  0.101
    5  0.003  0.028  0.028  0.000  0.000  0.000  0.000  0.000  0.000  0.058
    6  0.003  0.028  0.028  0.000  0.000  0.000  0.000  0.000  0.000  0.058
    7  0.003  0.028  0.028  0.000  0.000  0.000  0.000  0.000  0.000  0.058
    8  0.003  0.028  0.028  0.000  0.000  0.000  0.000  0.000  0.000  0.058
    9  0.000  0.031  0.017  0.000  0.000  0.000  0.000  0.000  0.000  0.048
   10  0.000  0.031  0.017  0.000  0.000  0.000  0.000  0.000  0.000  0.048
   11  0.000  0.031  0.017  0.000  0.000  0.000  0.000  0.000  0.000  0.048
   12  0.000  0.031  0.017  0.000  0.000  0.000  0.000  0.000  0.000  0.048
tot    0.015  0.244  0.180  0.000  0.000  0.015  0.123  0.000  0.251  0.828
 
band    24 # energy   -2.49861263 # occ.  1.00000000
 
ion      s     py     pz     px    dxy    dyz    dz2    dxz  x2-y2    tot
    1  0.000  0.005  0.001  0.000  0.000  0.003  0.039  0.000  0.052  0.101
    2  0.000  0.005  0.001  0.000  0.000  0.003  0.039  0.000  0.052  0.101
    3  0.000  0.005  0.001  0.000  0.000  0.003  0.039  0.000  0.052  0.101
    4  0.000  0.005  0.001  0.000  0.000  0.003  0.039  0.000  0.052  0.101
    5  0.005  0.023  0.020  0.000  0.000  0.000  0.000  0.000  0.000  0.049
    6  0.005  0.023  0.020  0.000  0.000  0.000  0.000  0.000  0.000  0.048
    7  0.005  0.023  0.020  0.000  0.000  0.000  0.000  0.000  0.000  0.048
    8  0.005  0.023  0.020  0.000  0.000  0.000  0.000  0.000  0.000  0.048
    9  0.000  0.030  0.032  0.000  0.000  0.000  0.000  0.000  0.000  0.063
   10  0.000  0.030  0.032  0.000  0.000  0.000  0.000  0.000  0.000  0.063
   11  0.000  0.030  0.032  0.000  0.000  0.000  0.000  0.000  0.000  0.063
   12  0.000  0.030  0.032  0.000  0.000  0.000  0.000  0.000  0.000  0.063
tot    0.024  0.235  0.214  0.000  0.000  0.010  0.156  0.000  0.209  0.848
 
band    25 # energy   -1.95315350 # occ.  1.00000000
 
ion      s     py     pz     px    dxy    dyz    dz2    dxz  x2-y2    tot
    1  0.000  0.000  0.000  0.004  0.067  0.000  0.000  0.056  0.000  0.127
    2  0.000  0.000  0.000  0.004  0.067  0.000  0.000  0.056  0.000  0.127
    3  0.000  0.000  0.000  0.004  0.067  0.000  0.000  0.056  0.000  0.127
    4  0.000  0.000  0.000  0.004  0.067  0.000  0.000  0.056  0.000  0.127
    5  0.000  0.000  0.000  0.088  0.000  0.000  0.000  0.000  0.000  0.088
    6  0.000  0.000  0.000  0.088  0.000  0.000  0.000  0.000  0.000  0.088
    7  0.000  0.000  0.000  0.088  0.000  0.000  0.000  0.000  0.000  0.088
    8  0.000  0.000  0.000  0.088  0.000  0.000  0.000  0.000  0.000  0.088
    9  0.000  0.000  0.000  0.020  0.000  0.000  0.000  0.000  0.000  0.020
   10  0.000  0.000  0.000  0.020  0.000  0.000  0.000  0.000  0.000  0.020
   11  0.000  0.000  0.000  0.020  0.000  0.000  0.000  0.000  0.000  0.020
   12  0.000  0.000  0.000  0.020  0.000  0.000  0.000  0.000  0.000  0.020
tot    0.000  0.000  0.000  0.449  0.267  0.000  0.000  0.223  0.000  0.939
 
band    26 # energy   -1.92958148 # occ.  1.00000000
 
ion      s     py     pz     px    dxy    dyz    dz2    dxz  x2-y2    tot
    1  0.000  0.000  0.000  0.003  0.041  0.000  0.000  0.087  0.000  0.130
    2  0.000  0.000  0.000  0.003  0.040  0.000  0.000  0.086  0.000  0.129
    3  0.000  0.000  0.000  0.003  0.040  0.000  0.000  0.086  0.000  0.129
    4  0.000  0.000  0.000  0.003  0.041  0.000  0.000  0.087  0.000  0.130
    5  0.000  0.000  0.000  0.085  0.000  0.000  0.000  0.000  0.000  0.085
    6  0.000  0.000  0.000  0.086  0.000  0.000  0.000  0.000  0.000  0.086
    7  0.000  0.000  0.000  0.085  0.000  0.000  0.000  0.000  0.000  0.085
    8  0.000  0.000  0.000  0.086  0.000  0.000  0.000  0.000  0.000  0.086
    9  0.000  0.000  0.000  0.020  0.000  0.000  0.000  0.000  0.000  0.020
   10  0.000  0.000  0.000  0.020  0.000  0.000  0.000  0.000  0.000  0.020
   11  0.000  0.000  0.000  0.021  0.000  0.000  0.000  0.000  0.000  0.021
   12  0.000  0.000  0.000  0.021  0.000  0.000  0.000  0.000  0.000  0.021
tot    0.000  0.000  0.000  0.434  0.162  0.000  0.000  0.346  0.000  0.941
 
band    27 # energy   -1.89213489 # occ.  1.00000000
 
ion      s     py     pz     px    dxy    dyz    dz2    dxz  x2-y2    tot
    1  0.000  0.000  0.000  0.003  0.085  0.000  0.000  0.041  0.000  0.128
    2  0.000  0.000  0.000  0.003  0.085  0.000  0.000  0.041  0.000  0.129
    3  0.000  0.000  0.000  0.003  0.086  0.000  0.000  0.041  0.000  0.129
    4  0.000  0.000  0.000  0.003  0.085  0.000  0.000  0.041  0.000  0.128
    5  0.000  0.000  0.000  0.077  0.000  0.000  0.000  0.000  0.000  0.077
    6  0.000  0.000  0.000  0.076  0.000  0.000  0.000  0.000  0.000  0.076
    7  0.000  0.000  0.000  0.077  0.000  0.000  0.000  0.000  0.000  0.077
    8  0.000  0.000  0.000  0.076  0.000  0.000  0.000  0.000  0.000  0.076