<?xml version="1.0" encoding="ISO-8859-1"?>
<modeling>
 <generator>
  <i name="program" type="string">vasp </i>
  <i name="version" type="string">5.4.4.18Apr17-6-g9f103f2a35  </i>
  <i name="subversion" type="string">(build Nov 08 2022 17:27:33) complex            parallel </i>
  <i name="platform" type="string">LinuxIFC </i>
  <i name="date" type="string">2022 11 22 </i>
  <i name="time" type="string">17:13:32 </i>
 </generator>
 <incar>
  <i type="string" name="PREC">accurate</i>
  <i type="string" name="ALGO"> Fast</i>
  <i type="int" name="ISPIN">     2</i>
  <i type="int" name="NELM">    40</i>
  <i type="int" name="IBRION">     2</i>
  <i name="EDIFF">      0.00001000</i>
  <i name="EDIFFG">     -0.03000000</i>
  <i type="int" name="NSW">   199</i>
  <i type="int" name="ISIF">     2</i>
  <i type="int" name="ISYM">     0</i>
  <i name="ENCUT">    400.00000000</i>
  <i name="ENAUG">    800.00000000</i>
  <v name="MAGMOM">      5.00000000      5.00000000      5.00000000      5.00000000      0.60000000      0.60000000      0.60000000      0.60000000      0.60000000      0.60000000      0.60000000      0.60000000</v>
  <i type="string" name="LREAL"> Auto</i>
  <i type="int" name="ISMEAR">     0</i>
  <i name="SIGMA">      0.01000000</i>
  <i type="int" name="LMAXMIX">     4</i>
  <i type="logical" name="LWAVE"> T  </i>
  <i type="int" name="LORBIT">    11</i>
  <i type="logical" name="LASPH"> T  </i>
  <v type="int" name="KPOINT_BSE">    -1     0     0     0</v>
  <i type="int" name="NELM">    40</i>
  <i type="string" name="GGA"> Pe</i>
  <i type="logical" name="LASPH"> T  </i>
 </incar>
 <structure name="primitive_cell" >
  <crystal>
   <varray name="basis" >
    <v>       2.91633100       0.00000000       0.00000000 </v>
    <v>      -0.00000100       4.58096600       0.00014500 </v>
    <v>       0.00000200       0.00030000       9.43439300 </v>
   </varray>
   <i name="volume">    126.03984071 </i>
   <varray name="rec_basis" >
    <v>       0.34289661       0.00000007      -0.00000007 </v>
    <v>       0.00000000       0.21829457      -0.00000694 </v>
    <v>       0.00000000      -0.00000336       0.10599516 </v>
   </varray>
  </crystal>
  <varray name="positions" >
   <v>       0.25000000       0.02126500      -0.13498600 </v>
   <v>      -0.25000000      -0.19132300      -0.21630800 </v>
   <v>       0.25000000       0.30854000      -0.28375200 </v>
   <v>      -0.25000000       0.21232300      -0.03694800 </v>
   <v>       0.25000000      -0.21232200       0.03695300 </v>
   <v>      -0.25000100      -0.02125900       0.13499200 </v>
   <v>       0.25000000      -0.28755300      -0.46307000 </v>
   <v>       0.25000000       0.19132200       0.21631000 </v>
   <v>      -0.25000000      -0.47869000      -0.36503200 </v>
   <v>      -0.25000000       0.28755100       0.46306600 </v>
   <v>      -0.25000000      -0.30854200       0.28375200 </v>
   <v>       0.25000100       0.47868900       0.36502400 </v>
  </varray>
 </structure>
 <varray name="primitive_index" >
  <v type="int" >        1 </v>
  <v type="int" >       12 </v>
  <v type="int" >       10 </v>
  <v type="int" >        6 </v>
  <v type="int" >        7 </v>
  <v type="int" >        2 </v>
  <v type="int" >        5 </v>
  <v type="int" >        9 </v>
  <v type="int" >        3 </v>
  <v type="int" >        8 </v>
  <v type="int" >       11 </v>
  <v type="int" >        4 </v>
 </varray>
 <kpoints>
  <generation param="Gamma">
   <v type="int" name="divisions">       1        1        1 </v>
   <v name="usershift">      0.00000000       0.00000000       0.00000000 </v>
   <v name="genvec1">      1.00000000       0.00000000      -0.00000000 </v>
   <v name="genvec2">      0.00000000       1.00000000       0.00000000 </v>
   <v name="genvec3">      0.00000000       0.00000000       1.00000000 </v>
   <v name="shift">      0.00000000       0.00000000       0.00000000 </v>
  </generation>
  <varray name="kpointlist" >
   <v>       0.00000000       0.00000000       0.00000000 </v>
  </varray>
  <varray name="weights" >
   <v>       1.00000000 </v>
  </varray>
 </kpoints>
 <parameters>
  <separator name="general" >
   <i type="string" name="SYSTEM">unknown system</i>
   <i type="logical" name="LCOMPAT"> F  </i>
  </separator>
  <separator name="electronic" >
   <i type="string" name="PREC">accura</i>
   <i name="ENMAX">    400.00000000</i>
   <i name="ENAUG">    800.00000000</i>
   <i name="EDIFF">      0.00001000</i>
   <i type="int" name="IALGO">    68</i>
   <i type="int" name="IWAVPR">    11</i>
   <i type="int" name="NBANDS">    72</i>
   <i name="NELECT">    100.00000000</i>
   <i type="int" name="TURBO">     0</i>
   <i type="int" name="IRESTART">     0</i>
   <i type="int" name="NREBOOT">     0</i>
   <i type="int" name="NMIN">     0</i>
   <i name="EREF">      0.00000000</i>
   <separator name="electronic smearing" >
    <i type="int" name="ISMEAR">     0</i>
    <i name="SIGMA">      0.01000000</i>
    <i name="KSPACING">      0.50000000</i>
    <i type="logical" name="KGAMMA"> T  </i>
   </separator>
   <separator name="electronic projectors" >
    <i type="logical" name="LREAL"> T  </i>
    <v name="ROPT">     -0.00025000     -0.00025000</v>
    <i type="int" name="LMAXPAW">  -100</i>
    <i type="int" name="LMAXMIX">     4</i>
    <i type="logical" name="NLSPLINE"> F  </i>
   </separator>
   <separator name="electronic startup" >
    <i type="int" name="ISTART">     0</i>
    <i type="int" name="ICHARG">     2</i>
    <i type="int" name="INIWAV">     1</i>
   </separator>
   <separator name="electronic spin" >
    <i type="int" name="ISPIN">     2</i>
    <i type="logical" name="LNONCOLLINEAR"> F  </i>
    <v name="MAGMOM">      5.00000000      5.00000000      5.00000000      5.00000000      0.60000000      0.60000000      0.60000000      0.60000000      0.60000000      0.60000000      0.60000000      0.60000000</v>
    <i name="NUPDOWN">     -1.00000000</i>
    <i type="logical" name="LSORBIT"> F  </i>
    <v name="SAXIS">      0.00000000      0.00000000      1.00000000</v>
    <i type="logical" name="LSPIRAL"> F  </i>
    <v name="QSPIRAL">      0.00000000      0.00000000      0.00000000</v>
    <i type="logical" name="LZEROZ"> F  </i>
   </separator>
   <separator name="electronic exchange-correlation" >
    <i type="logical" name="LASPH"> T  </i>
    <i type="logical" name="LMETAGGA"> F  </i>
   </separator>
   <separator name="electronic convergence" >
    <i type="int" name="NELM">    40</i>
    <i type="int" name="NELMDL">    -5</i>
    <i type="int" name="NELMIN">     2</i>
    <i name="ENINI">    400.00000000</i>
    <separator name="electronic convergence detail" >
     <i type="logical" name="LDIAG"> T  </i>
     <i type="logical" name="LSUBROT"> F  </i>
     <i name="WEIMIN">      0.00100000</i>
     <i name="EBREAK">      0.00000003</i>
     <i name="DEPER">      0.30000000</i>
     <i type="int" name="NRMM">     4</i>
     <i name="TIME">      0.40000000</i>
    </separator>
   </separator>
   <separator name="electronic mixer" >
    <i name="AMIX">      0.40000000</i>
    <i name="BMIX">      1.00000000</i>
    <i name="AMIN">      0.10000000</i>
    <i name="AMIX_MAG">      1.60000000</i>
    <i name="BMIX_MAG">      1.00000000</i>
    <separator name="electronic mixer details" >
     <i type="int" name="IMIX">     4</i>
     <i type="logical" name="MIXFIRST"> F  </i>
     <i type="int" name="MAXMIX">   -45</i>
     <i name="WC">    100.00000000</i>
     <i type="int" name="INIMIX">     1</i>
     <i type="int" name="MIXPRE">     1</i>
     <i type="int" name="MREMOVE">     5</i>
    </separator>
   </separator>
   <separator name="electronic dipolcorrection" >
    <i type="logical" name="LDIPOL"> F  </i>
    <i type="logical" name="LMONO"> F  </i>
    <i type="int" name="IDIPOL">     0</i>
    <i name="EPSILON">      1.00000000</i>
    <v name="DIPOL">   -100.00000000   -100.00000000   -100.00000000</v>
    <i name="EFIELD">      0.00000000</i>
   </separator>
  </separator>
  <separator name="grids" >
   <i type="int" name="NGX">    20</i>
   <i type="int" name="NGY">    30</i>
   <i type="int" name="NGZ">    64</i>
   <i type="int" name="NGXF">    40</i>
   <i type="int" name="NGYF">    60</i>
   <i type="int" name="NGZF">   128</i>
   <i type="logical" name="ADDGRID"> F  </i>
  </separator>
  <separator name="ionic" >
   <i type="int" name="NSW">   199</i>
   <i type="int" name="IBRION">     2</i>
   <i type="int" name="MDALGO">     0</i>
   <i type="int" name="ISIF">     2</i>
   <i name="PSTRESS">      0.00000000</i>
   <i name="EDIFFG">     -0.03000000</i>
   <i type="int" name="NFREE">     1</i>
   <i name="POTIM">      0.50000000</i>
   <i name="SMASS">     -3.00000000</i>
   <i name="SCALEE">      1.00000000</i>
  </separator>
  <separator name="ionic md" >
   <i name="TEBEG">      0.00010000</i>
   <i name="TEEND">      0.00010000</i>
   <i type="int" name="NBLOCK">     1</i>
   <i type="int" name="KBLOCK">   199</i>
   <i type="int" name="NPACO">   256</i>
   <i name="APACO">     16.00000000</i>
  </separator>
  <separator name="symmetry" >
   <i type="int" name="ISYM">     0</i>
   <i name="SYMPREC">      0.00001000</i>
  </separator>
  <separator name="dos" >
   <i type="int" name="LORBIT">    11</i>
   <v name="RWIGS">     -1.00000000     -1.00000000</v>
   <i type="int" name="NEDOS">   301</i>
   <i name="EMIN">     10.00000000</i>
   <i name="EMAX">    -10.00000000</i>
   <i name="EFERMI">      0.00000000</i>
  </separator>
  <separator name="writing" >
   <i type="int" name="NWRITE">     2</i>
   <i type="logical" name="LWAVE"> T  </i>
   <i type="logical" name="LDOWNSAMPLE"> F  </i>
   <i type="logical" name="LCHARG"> T  </i>
   <i type="logical" name="LPARD"> F  </i>
   <i type="logical" name="LVTOT"> F  </i>
   <i type="logical" name="LVHAR"> F  </i>
   <i type="logical" name="LELF"> F  </i>
   <i type="logical" name="LOPTICS"> F  </i>
   <v name="STM">      0.00000000      0.00000000      0.00000000      0.00000000      0.00000000      0.00000000      0.00000000</v>
  </separator>
  <separator name="performance" >
   <i type="int" name="NPAR">     4</i>
   <i type="int" name="NSIM">     4</i>
   <i type="int" name="NBLK">    -1</i>
   <i type="logical" name="LPLANE"> T  </i>
   <i type="logical" name="LSCALAPACK"> T  </i>
   <i type="logical" name="LSCAAWARE"> F  </i>
   <i type="logical" name="LSCALU"> F  </i>
   <i type="logical" name="LASYNC"> F  </i>
   <i type="logical" name="LORBITALREAL"> F  </i>
  </separator>
  <separator name="miscellaneous" >
   <i type="int" name="IDIOT">     3</i>
   <i type="int" name="ISPECIAL">     0</i>
   <i type="logical" name="LMUSIC"> F  </i>
   <v name="POMASS">     54.93800000     16.00000000</v>
   <v name="DARWINR">      0.00000000      0.00000000</v>
   <v name="DARWINV">      1.00000000      1.00000000</v>
   <i type="logical" name="LCORR"> T  </i>
  </separator>
  <i type="logical" name="GGA_COMPAT"> T  </i>
  <i type="logical" name="LBERRY"> F  </i>
  <i type="int" name="ICORELEVEL">     0</i>
  <i type="logical" name="LDAU"> F  </i>
  <i type="int" name="I_CONSTRAINED_M">     0</i>
  <separator name="electronic exchange-correlation" >
   <i type="string" name="GGA">PE</i>
   <i type="int" name="VOSKOWN">     0</i>
   <i type="logical" name="LHFCALC"> F  </i>
   <i type="string" name="PRECFOCK"></i>
   <i type="logical" name="LSYMGRAD"> F  </i>
   <i type="logical" name="LHFONE"> F  </i>
   <i type="logical" name="LRHFCALC"> F  </i>
   <i type="logical" name="LTHOMAS"> F  </i>
   <i type="logical" name="LMODELHF"> F  </i>
   <i name="ENCUT4O">     -1.00000000</i>
   <i type="int" name="EXXOEP">     0</i>
   <i type="int" name="FOURORBIT">     0</i>
   <i name="AEXX">      0.00000000</i>
   <i name="HFALPHA">      0.00000000</i>
   <i name="MCALPHA">      0.00000000</i>
   <i name="ALDAX">      1.00000000</i>
   <i name="AGGAX">      1.00000000</i>
   <i name="ALDAC">      1.00000000</i>
   <i name="AGGAC">      1.00000000</i>
   <i type="int" name="NKREDX">     1</i>
   <i type="int" name="NKREDY">     1</i>
   <i type="int" name="NKREDZ">     1</i>
   <i type="logical" name="SHIFTRED"> F  </i>
   <i type="logical" name="ODDONLY"> F  </i>
   <i type="logical" name="EVENONLY"> F  </i>
   <i type="int" name="LMAXFOCK">     0</i>
   <i type="int" name="NMAXFOCKAE">     0</i>
   <i type="logical" name="LFOCKAEDFT"> F  </i>
   <i name="HFSCREEN">      0.00000000</i>
   <i name="HFSCREENC">      0.00000000</i>
   <i type="int" name="NBANDSGWLOW">     0</i>
  </separator>
  <separator name="vdW DFT" >
   <i type="logical" name="LUSE_VDW"> F  </i>
   <i name="Zab_VDW">     -0.84910000</i>
   <i name="PARAM1">      0.12340000</i>
   <i name="PARAM2">      1.00000000</i>
   <i name="PARAM3">      0.00000000</i>
  </separator>
  <separator name="model GW" >
   <i type="int" name="MODEL_GW">     0</i>
   <i name="MODEL_EPS0">      6.30199204</i>
   <i name="MODEL_ALPHA">      1.00000000</i>
  </separator>
  <separator name="linear response parameters" >
   <i type="logical" name="LEPSILON"> F  </i>
   <i type="logical" name="LRPA"> F  </i>
   <i type="logical" name="LNABLA"> F  </i>
   <i type="logical" name="LVEL"> F  </i>
   <i type="int" name="KINTER">     0</i>
   <i name="CSHIFT">      0.10000000</i>
   <i name="OMEGAMAX">     -1.00000000</i>
   <i name="DEG_THRESHOLD">      0.00200000</i>
   <i name="RTIME">     -0.10000000</i>
   <i name="WPLASMAI">      0.00000000</i>
   <v name="DFIELD">      0.00000000      0.00000000      0.00000000</v>
   <v name="WPLASMA">      0.00000000      0.00000000      0.00000000      0.00000000      0.00000000      0.00000000      0.00000000      0.00000000      0.00000000</v>
  </separator>
  <separator name="orbital magnetization" >
   <i type="logical" name="NUCIND"> F  </i>
   <v name="MAGPOS">      0.00000000      0.00000000      0.00000000</v>
   <i type="logical" name="LNICSALL"> T  </i>
   <i type="logical" name="ORBITALMAG"> F  </i>
   <i type="logical" name="LMAGBLOCH"> F  </i>
   <i type="logical" name="LCHIMAG"> F  </i>
   <i type="logical" name="LGAUGE"> T  </i>
   <i type="int" name="MAGATOM">     0</i>
   <v name="MAGDIPOL">      0.00000000      0.00000000      0.00000000</v>
   <v name="AVECCONST">      0.00000000      0.00000000      0.00000000</v>
  </separator>
  <separator name="response functions" >
   <i type="logical" name="LADDER"> F  </i>
   <i type="logical" name="LRPAFORCE"> F  </i>
   <i type="logical" name="LFXC"> F  </i>
   <i type="logical" name="LHARTREE"> T  </i>
   <i type="int" name="IBSE">     0</i>
   <v type="int" name="KPOINT">    -1     0     0     0</v>
   <i type="logical" name="LTCTE"> F  </i>
   <i type="logical" name="LTETE"> F  </i>
   <i type="logical" name="LTRIPLET"> F  </i>
   <i type="logical" name="LFXCEPS"> F  </i>
   <i type="logical" name="LFXHEG"> F  </i>
   <i type="int" name="NATURALO">     2</i>
   <i type="logical" name="L2ORDER"> F  </i>
   <i type="logical" name="LMP2LT"> F  </i>
   <i type="logical" name="LUSEW"> F  </i>
   <i name="ENCUTGW">     -2.00000000</i>
   <i name="ENCUTGWSOFT">     -2.00000000</i>
   <i name="ENCUTLF">     -1.00000000</i>
   <i type="int" name="LMAXMP2">    -1</i>
   <i name="SCISSOR">      0.00000000</i>
   <i type="int" name="NOMEGA">     0</i>
   <i type="int" name="NOMEGAR">     0</i>
   <i type="int" name="NBANDSGW">    -1</i>
   <i type="int" name="NBANDSO">    -1</i>
   <i type="int" name="NBANDSV">    -1</i>
   <i type="int" name="NELM">    40</i>
   <i type="int" name="NELMHF">     1</i>
   <i type="int" name="DIM">     3</i>
   <i type="int" name="ANTIRES">     0</i>
   <i name="OMEGAMAX">    -30.00000000</i>
   <i name="OMEGAMIN">    -30.00000000</i>
   <i name="OMEGATL">   -200.00000000</i>
   <i type="int" name="OMEGAGRID">   140</i>
   <i name="CSHIFT">     -0.10000000</i>
   <i type="logical" name="SELFENERGY"> F  </i>
   <i type="logical" name="LSPECTRAL"> F  </i>
   <i type="logical" name="LSPECTRALGW"> F  </i>
   <i type="logical" name="LSINGLES"> F  </i>
   <i type="logical" name="LFERMIGW"> F  </i>
   <i type="logical" name="ODDONLYGW"> F  </i>
   <i type="logical" name="EVENONLYGW"> F  </i>
   <i type="int" name="NKREDLFX">     1</i>
   <i type="int" name="NKREDLFY">     1</i>
   <i type="int" name="NKREDLFZ">     1</i>
   <i type="int" name="MAXMEM">  2800</i>
   <i type="int" name="TELESCOPE">     0</i>
   <i type="int" name="TAUPAR">     1</i>
   <i type="int" name="OMEGAPAR">    -1</i>
   <i name="LAMBDA">      1.00000000</i>
  </separator>
  <separator name="External order field" >
   <i name="OFIELD_KAPPA">      0.00000000</i>
   <v name="OFIELD_K">      0.00000000      0.00000000      0.00000000</v>
   <i name="OFIELD_Q6_NEAR">      0.00000000</i>
   <i name="OFIELD_Q6_FAR">      0.00000000</i>
   <i name="OFIELD_A">      0.00000000</i>
  </separator>
 </parameters>
 <atominfo>
  <atoms>      12 </atoms>
  <types>       2 </types>
  <array name="atoms" >
   <dimension dim="1">ion</dimension>
   <field type="string">element</field>
   <field type="int">atomtype</field>
   <set>
    <rc><c>Mn</c><c>   1</c></rc>
    <rc><c>Mn</c><c>   1</c></rc>
    <rc><c>Mn</c><c>   1</c></rc>
    <rc><c>Mn</c><c>   1</c></rc>
    <rc><c>O </c><c>   2</c></rc>
    <rc><c>O </c><c>   2</c></rc>
    <rc><c>O </c><c>   2</c></rc>
    <rc><c>O </c><c>   2</c></rc>
    <rc><c>O </c><c>   2</c></rc>
    <rc><c>O </c><c>   2</c></rc>
    <rc><c>O </c><c>   2</c></rc>
    <rc><c>O </c><c>   2</c></rc>
   </set>
  </array>
  <array name="atomtypes" >
   <dimension dim="1">type</dimension>
   <field type="int">atomspertype</field>
   <field type="string">element</field>
   <field>mass</field>
   <field>valence</field>
   <field type="string">pseudopotential</field>
   <set>
    <rc><c>   4</c><c>Mn</c><c>     54.93800000</c><c>     13.00000000</c><c>  PAW_PBE Mn_pv 02Aug2007               </c></rc>
    <rc><c>   8</c><c>O </c><c>     16.00000000</c><c>      6.00000000</c><c>  PAW_PBE O 08Apr2002                   </c></rc>
   </set>
  </array>
 </atominfo>
 <structure name="initialpos" >
  <crystal>
   <varray name="basis" >
    <v>       2.91633100       0.00000000       0.00000000 </v>
    <v>      -0.00000100       4.58096600       0.00014500 </v>
    <v>       0.00000200       0.00030000       9.43439300 </v>
   </varray>
   <i name="volume">    126.03984071 </i>
   <varray name="rec_basis" >
    <v>       0.34289661       0.00000007      -0.00000007 </v>
    <v>       0.00000000       0.21829457      -0.00000694 </v>
    <v>       0.00000000      -0.00000336       0.10599516 </v>
   </varray>
  </crystal>
  <varray name="positions" >
   <v>       0.25000000       0.02126500       0.86501400 </v>
   <v>       0.74999900       0.97874100       0.13499200 </v>
   <v>       0.75000000       0.52131000       0.63496800 </v>
   <v>       0.25000100       0.47868900       0.36502400 </v>
   <v>       0.25000000       0.71244700       0.53693000 </v>
   <v>       0.75000000       0.21232300       0.96305200 </v>
   <v>       0.25000000       0.78767800       0.03695300 </v>
   <v>       0.75000000       0.28755100       0.46306600 </v>
   <v>       0.25000000       0.19132200       0.21631000 </v>
   <v>       0.25000000       0.30854000       0.71624800 </v>
   <v>       0.75000000       0.69145800       0.28375200 </v>
   <v>       0.75000000       0.80867700       0.78369200 </v>
  </varray>
 </structure>
 <calculation>
  <scstep>
   <time name="dav">    0.22    0.23</time>
   <time name="total">    0.69    0.70</time>
   <energy>
    <i name="alphaZ">    441.37612112 </i>
    <i name="ewald">  -7485.64291034 </i>
    <i name="hartreedc">  -3708.68415669 </i>
    <i name="XCdc">    505.12844288 </i>
    <i name="pawpsdc">   9348.07423200 </i>
    <i name="pawaedc">  -9564.46064786 </i>
    <i name="eentropy">     -0.00000000 </i>
    <i name="bandstr">    144.48564611 </i>
    <i name="atom">  11559.05757976 </i>
    <i name="e_fr_energy">   1239.33430697 </i>
    <i name="e_wo_entrp">   1239.33430697 </i>
    <i name="e_0_energy">   1239.33430697 </i>
   </energy>
  </scstep>
  <scstep>
   <time name="dav">    0.19    0.19</time>
   <time name="total">    0.19    0.19</time>
   <energy>
    <i name="e_fr_energy">     28.87088635 </i>
    <i name="e_wo_entrp">     28.87088635 </i>
    <i name="e_0_energy">     28.87088635 </i>
   </energy>
  </scstep>
  <scstep>
   <time name="dav">    0.20    0.20</time>
   <time name="total">    0.20    0.20</time>
   <energy>
    <i name="e_fr_energy">   -115.57871241 </i>
    <i name="e_wo_entrp">   -115.57871241 </i>
    <i name="e_0_energy">   -115.57871241 </i>
   </energy>
  </scstep>
  <scstep>
   <time name="dav">    0.20    0.20</time>
   <time name="total">    0.20    0.20</time>
   <energy>
    <i name="e_fr_energy">   -119.68220183 </i>
    <i name="e_wo_entrp">   -119.68220183 </i>
    <i name="e_0_energy">   -119.68220183 </i>
   </energy>
  </scstep>
  <scstep>
   <time name="dav">    0.19    0.19</time>
   <time name="total">    0.20    0.20</time>
   <energy>
    <i name="e_fr_energy">   -119.72536935 </i>
    <i name="e_wo_entrp">   -119.72536935 </i>
    <i name="e_0_energy">   -119.72536935 </i>
   </energy>
  </scstep>
  <scstep>
   <time name="diag">    0.03    0.03</time>
   <time name="diis">    0.10    0.10</time>
   <time name="orth">    0.01    0.01</time>
   <time name="total">    0.65    0.65</time>
   <energy>
    <i name="e_fr_energy">   -114.51699620 </i>
    <i name="e_wo_entrp">   -114.51698906 </i>
    <i name="e_0_energy">   -114.51699263 </i>
   </energy>
  </scstep>
  <scstep>
   <time name="diag">    0.03    0.03</time>
   <time name="diis">    0.10    0.10</time>
   <time name="orth">    0.01    0.01</time>
   <time name="total">    0.74    0.75</time>
   <energy>
    <i name="e_fr_energy">    -83.28801223 </i>
    <i name="e_wo_entrp">    -83.28801223 </i>
    <i name="e_0_energy">    -83.28801223 </i>
   </energy>
  </scstep>
  <scstep>
   <time name="diag">    0.02    0.03</time>
   <time name="diis">    0.05    0.09</time>
   <time name="orth">    0.00    0.01</time>
   <time name="total">    0.61    0.68</time>
   <energy>
    <i name="e_fr_energy">    -88.06757648 </i>
    <i name="e_wo_entrp">    -88.06757648 </i>
    <i name="e_0_energy">    -88.06757648 </i>
   </energy>
  </scstep>
  <scstep>
   <time name="diag">    0.02    0.03</time>
   <time name="diis">    0.07    0.09</time>
   <time name="orth">    0.01    0.01</time>
   <time name="total">    0.42    0.60</time>
   <energy>
    <i name="e_fr_energy">    -91.31982191 </i>
    <i name="e_wo_entrp">    -91.31982191 </i>
    <i name="e_0_energy">    -91.31982191 </i>
   </energy>
  </scstep>
  <scstep>
   <time name="diag">    0.03    0.03</time>
   <time name="diis">    0.10    0.10</time>
   <time name="orth">    0.01    0.01</time>
   <time name="total">    0.45    0.69</time>
   <energy>
    <i name="e_fr_energy">    -91.19323936 </i>
    <i name="e_wo_entrp">    -91.19323936 </i>
    <i name="e_0_energy">    -91.19323936 </i>
   </energy>
  </scstep>
  <scstep>
   <time name="diag">    0.02    0.03</time>
   <time name="diis">    0.05    0.09</time>
   <time name="orth">    0.00    0.01</time>
   <time name="total">    0.35    0.63</time>
   <energy>
    <i name="e_fr_energy">    -91.16181446 </i>
    <i name="e_wo_entrp">    -91.16181446 </i>
    <i name="e_0_energy">    -91.16181446 </i>
   </energy>
  </scstep>
  <scstep>
   <time name="diag">    0.02    0.03</time>
   <time name="diis">    0.07    0.10</time>
   <time name="orth">    0.01    0.01</time>
   <time name="total">    0.50    0.71</time>
   <energy>
    <i name="e_fr_energy">    -91.16230472 </i>
    <i name="e_wo_entrp">    -91.16230472 </i>
    <i name="e_0_energy">    -91.16230472 </i>
   </energy>
  </scstep>
  <scstep>
   <time name="diag">    0.03    0.03</time>
   <time name="diis">    0.10    0.10</time>
   <time name="orth">    0.01    0.01</time>
   <time name="total">    0.65    0.80</time>
   <energy>
    <i name="e_fr_energy">    -91.15883220 </i>
    <i name="e_wo_entrp">    -91.15883220 </i>
    <i name="e_0_energy">    -91.15883220 </i>
   </energy>
  </scstep>
  <scstep>
   <time name="diag">    0.02    0.03</time>
   <time name="diis">    0.05    0.09</time>
   <time name="orth">    0.01    0.01</time>
   <time name="total">    0.59    0.76</time>
   <energy>
    <i name="e_fr_energy">    -91.15704338 </i>
    <i name="e_wo_entrp">    -91.15704338 </i>
    <i name="e_0_energy">    -91.15704338 </i>
   </energy>
  </scstep>
  <scstep>
   <time name="diag">    0.02    0.03</time>
   <time name="diis">    0.07    0.10</time>
   <time name="orth">    0.00    0.01</time>
   <time name="total">    0.56    0.68</time>
   <energy>
    <i name="e_fr_energy">    -91.15703767 </i>
    <i name="e_wo_entrp">    -91.15703767 </i>
    <i name="e_0_energy">    -91.15703767 </i>
   </energy>
  </scstep>
  <scstep>
   <time name="diag">    0.02    0.03</time>
   <time name="diis">    0.04    0.08</time>
   <time name="orth">    0.00    0.01</time>
   <time name="total">    0.41    0.62</time>
   <energy>
    <i name="e_fr_energy">    -91.15709527 </i>
    <i name="e_wo_entrp">    -91.15709527 </i>
    <i name="e_0_energy">    -91.15709527 </i>
   </energy>
  </scstep>
  <scstep>
   <time name="diag">    0.02    0.03</time>
   <time name="diis">    0.03    0.06</time>
   <time name="orth">    0.00    0.01</time>
   <time name="total">    0.45    0.57</time>
   <energy>
    <i name="alphaZ">    441.37612112 </i>
    <i name="ewald">  -7485.64291034 </i>
    <i name="hartreedc">  -3604.95612051 </i>
    <i name="XCdc">    499.73109538 </i>
    <i name="pawpsdc">  11899.73277481 </i>
    <i name="pawaedc"> -12134.44678296 </i>
    <i name="eentropy">     -0.00000000 </i>
    <i name="bandstr">  -1266.00885305 </i>
    <i name="atom">  11559.05757976 </i>
    <i name="e_fr_energy">    -91.15709580 </i>
    <i name="e_wo_entrp">    -91.15709580 </i>
    <i name="e_0_energy">    -91.15709580 </i>
   </energy>
  </scstep>
  <structure>
   <crystal>
    <varray name="basis" >
     <v>       2.91633100       0.00000000       0.00000000 </v>
     <v>      -0.00000100       4.58096600       0.00014500 </v>
     <v>       0.00000200       0.00030000       9.43439300 </v>
    </varray>
    <i name="volume">    126.03984071 </i>
    <varray name="rec_basis" >
     <v>       0.34289661       0.00000007      -0.00000007 </v>
     <v>       0.00000000       0.21829457      -0.00000694 </v>
     <v>       0.00000000      -0.00000336       0.10599516 </v>
    </varray>
   </crystal>
   <varray name="positions" >
    <v>       0.25000000       0.02126500       0.86501400 </v>
    <v>       0.74999900       0.97874100       0.13499200 </v>
    <v>       0.75000000       0.52131000       0.63496800 </v>
    <v>       0.25000100       0.47868900       0.36502400 </v>
    <v>       0.25000000       0.71244700       0.53693000 </v>
    <v>       0.75000000       0.21232300       0.96305200 </v>
    <v>       0.25000000       0.78767800       0.03695300 </v>
    <v>       0.75000000       0.28755100       0.46306600 </v>
    <v>       0.25000000       0.19132200       0.21631000 </v>
    <v>       0.25000000       0.30854000       0.71624800 </v>
    <v>       0.75000000       0.69145800       0.28375200 </v>
    <v>       0.75000000       0.80867700       0.78369200 </v>
   </varray>
  </structure>
  <varray name="forces" >
   <v>      -0.00000599      -0.05516079       0.57180990 </v>
   <v>       0.00003256       0.05432509      -0.57304925 </v>
   <v>       0.00000545      -0.05521696      -0.57314386 </v>
   <v>      -0.00002998       0.05555025       0.57404185 </v>
   <v>       0.00000477      -1.52166876       1.57889743 </v>
   <v>      -0.00000091      -1.51553962      -1.57701847 </v>
   <v>      -0.00001276       1.51564477       1.57734963 </v>
   <v>       0.00000774       1.52170896      -1.57879962 </v>
   <v>      -0.00001606      -1.42784236      -1.28043100 </v>
   <v>      -0.00000199       1.43461708      -1.27962246 </v>
   <v>       0.00001785      -1.43452802       1.27938778 </v>
   <v>      -0.00000067       1.42811036       1.28057806 </v>
  </varray>
  <varray name="stress" >
   <v>      26.50781544       0.00044797      -0.00022288 </v>
   <v>       0.00044788    -145.13674912       0.02991688 </v>
   <v>      -0.00022250       0.02992811    -123.30805323 </v>
  </varray>
  <energy>
   <i name="e_fr_energy">    -91.15709580 </i>
   <i name="e_wo_entrp">    -91.15709580 </i>
   <i name="e_0_energy">     -0.00000000 </i>
  </energy>
  <time name="totalsc">    9.95   11.91</time>
 </calculation>
 <calculation>
  <scstep>
   <time name="dav">    0.11    0.20</time>
   <time name="total">    0.66    0.88</time>
   <energy>
    <i name="alphaZ">    441.37612112 </i>
    <i name="ewald">  -7300.66664598 </i>
    <i name="hartreedc">  -3773.13358965 </i>
    <i name="XCdc">    500.93991775 </i>
    <i name="pawpsdc">  11900.61118017 </i>
    <i name="pawaedc"> -12135.30786534 </i>
    <i name="eentropy">     -0.00000000 </i>
    <i name="bandstr">  -1283.03009642 </i>
    <i name="atom">  11559.05757976 </i>
    <i name="e_fr_energy">    -90.15339858 </i>
    <i name="e_wo_entrp">    -90.15339858 </i>
    <i name="e_0_energy">    -90.15339858 </i>
   </energy>
  </scstep>
  <scstep>
   <time name="diag">    0.03    0.03</time>
   <time name="diis">    0.12    0.12</time>
   <time name="orth">    0.01    0.01</time>
   <time name="total">    0.53    0.63</time>
   <energy>
    <i name="e_fr_energy">    -92.34280560 </i>
    <i name="e_wo_entrp">    -92.34280560 </i>
    <i name="e_0_energy">    -92.34280560 </i>
   </energy>
  </scstep>
  <scstep>
   <time name="diag">    0.03    0.03</time>
   <time name="diis">    0.10    0.10</time>
   <time name="orth">    0.01    0.01</time>
   <time name="total">    0.73    0.73</time>
   <energy>
    <i name="e_fr_energy">    -92.14326183 </i>
    <i name="e_wo_entrp">    -92.14326183 </i>
    <i name="e_0_energy">    -92.14326183 </i>
   </energy>
  </scstep>
  <scstep>
   <time name="diag">    0.03    0.03</time>
   <time name="diis">    0.10    0.11</time>
   <time name="orth">    0.00    0.01</time>
   <time name="total">    0.66    0.81</time>
   <energy>
    <i name="e_fr_energy">    -92.10862437 </i>
    <i name="e_wo_entrp">    -92.10862437 </i>
    <i name="e_0_energy">    -92.10862437 </i>
   </energy>
  </scstep>
  <scstep>
   <time name="diag">    0.02    0.03</time>
   <time name="diis">    0.05    0.11</time>
   <time name="orth">    0.00    0.01</time>
   <time name="total">    0.53    0.79</time>
   <energy>
    <i name="e_fr_energy">    -92.09313618 </i>
    <i name="e_wo_entrp">    -92.09313618 </i>
    <i name="e_0_energy">    -92.09313618 </i>
   </energy>
  </scstep>
  <scstep>
   <time name="diag">    0.02    0.03</time>
   <time name="diis">    0.08    0.11</time>
   <time name="orth">    0.01    0.01</time>
   <time name="total">    0.53    0.77</time>
   <energy>
    <i name="e_fr_energy">    -92.09159662 </i>
    <i name="e_wo_entrp">    -92.09159662 </i>
    <i name="e_0_energy">    -92.09159662 </i>
   </energy>
  </scstep>
  <scstep>
   <time name="diag">    0.02    0.03</time>
   <time name="diis">    0.06    0.11</time>
   <time name="orth">    0.00    0.01</time>
   <time name="total">    0.49    0.66</time>
   <energy>
    <i name="e_fr_energy">    -92.09124158 </i>
    <i name="e_wo_entrp">    -92.09124158 </i>
    <i name="e_0_energy">    -92.09124158 </i>
   </energy>
  </scstep>
  <scstep>
   <time name="diag">    0.02    0.03</time>
   <time name="diis">    0.05    0.10</time>
   <time name="orth">    0.00    0.01</time>
   <time name="total">    0.52    0.79</time>
   <energy>
    <i name="e_fr_energy">    -92.09116089 </i>
    <i name="e_wo_entrp">    -92.09116089 </i>
    <i name="e_0_energy">    -92.09116089 </i>
   </energy>
  </scstep>
  <scstep>
   <time name="diag">    0.02    0.03</time>
   <time name="diis">    0.05    0.10</time>
   <time name="orth">    0.00    0.01</time>
   <time name="total">    0.51    0.78</time>
   <energy>
    <i name="e_fr_energy">    -92.09114443 </i>
    <i name="e_wo_entrp">    -92.09114443 </i>
    <i name="e_0_energy">    -92.09114443 </i>
   </energy>
  </scstep>
  <scstep>
   <time name="diag">    0.02    0.03</time>
   <time name="diis">    0.03    0.07</time>
   <time name="orth">    0.00    0.01</time>
   <time name="total">    0.39    0.69</time>
   <energy>
    <i name="alphaZ">    441.37612112 </i>
    <i name="ewald">  -7300.66664598 </i>
    <i name="hartreedc">  -3781.42149584 </i>
    <i name="XCdc">    500.96238797 </i>
    <i name="pawpsdc">  12261.50334897 </i>
    <i name="pawaedc"> -12496.11695663 </i>
    <i name="eentropy">     -0.00000000 </i>
    <i name="bandstr">  -1276.78548449 </i>
    <i name="atom">  11559.05757976 </i>
    <i name="e_fr_energy">    -92.09114512 </i>
    <i name="e_wo_entrp">    -92.09114512 </i>
    <i name="e_0_energy">    -92.09114512 </i>
   </energy>
  </scstep>
  <structure>
   <crystal>
    <varray name="basis" >
     <v>       2.91633100       0.00000000       0.00000000 </v>
     <v>      -0.00000100       4.58096600       0.00014500 </v>
     <v>       0.00000200       0.00030000       9.43439300 </v>
    </varray>
    <i name="volume">    126.03984071 </i>
    <varray name="rec_basis" >
     <v>       0.34289661       0.00000007      -0.00000007 </v>
     <v>       0.00000000       0.21829457      -0.00000694 </v>
     <v>       0.00000000      -0.00000336       0.10599516 </v>
    </varray>
   </crystal>
   <varray name="positions" >
    <v>       0.24999990       0.02068390       0.86793795 </v>
    <v>       0.74999954       0.97931330       0.13206171 </v>
    <v>       0.75000009       0.52072870       0.63203724 </v>
    <v>       0.25000050       0.47927381       0.36795935 </v>
    <v>       0.25000007       0.69642161       0.54500392 </v>
    <v>       0.74999998       0.19636321       0.95498818 </v>
    <v>       0.24999979       0.80363889       0.04501851 </v>
    <v>       0.75000014       0.30357681       0.45499258 </v>
    <v>       0.24999973       0.17628566       0.20976276 </v>
    <v>       0.24999998       0.32364854       0.70970443 </v>
    <v>       0.75000029       0.67635040       0.29029437 </v>
    <v>       0.74999999       0.82371616       0.79023999 </v>
   </varray>
  </structure>
  <varray name="forces" >
   <v>       0.00000378       0.03457053      -0.41066867 </v>
   <v>       0.00000956      -0.03394030       0.41084264 </v>
   <v>      -0.00000362       0.03303064       0.41199139 </v>
   <v>      -0.00001223      -0.03364217      -0.41260739 </v>
   <v>       0.00000626       0.16183795       0.27220746 </v>
   <v>      -0.00000245       0.16301171      -0.27220669 </v>
   <v>      -0.00000466      -0.16338280       0.27163782 </v>
   <v>       0.00000219      -0.16161029      -0.27157962 </v>
   <v>       0.00000056      -0.09373007      -0.07151707 </v>
   <v>       0.00000103       0.09647357      -0.06972928 </v>
   <v>       0.00000281      -0.09639608       0.06995439 </v>
   <v>      -0.00000323       0.09377729       0.07167502 </v>
  </varray>
  <varray name="stress" >
   <v>      37.43131405       0.00028362      -0.00023473 </v>
   <v>       0.00028393     -47.83593484      -0.01387224 </v>
   <v>      -0.00023380      -0.01386825     -27.86563856 </v>
  </varray>
  <energy>
   <i name="e_fr_energy">    -92.09114512 </i>
   <i name="e_wo_entrp">    -92.09114512 </i>
   <i name="e_0_energy">     -0.00000000 </i>
  </energy>
  <time name="totalsc">    6.53    8.98</time>
 </calculation>
 <calculation>
  <scstep>
   <time name="dav">    0.20    0.21</time>
   <time name="total">    0.44    0.70</time>
   <energy>
    <i name="alphaZ">    441.37612112 </i>
    <i name="ewald">  -7297.38252195 </i>
    <i name="hartreedc">  -3784.42723664 </i>
    <i name="XCdc">    500.98676906 </i>
    <i name="pawpsdc">  12260.99156652 </i>
    <i name="pawaedc"> -12495.60575468 </i>
    <i name="eentropy">     -0.00000000 </i>
    <i name="bandstr">  -1277.08754082 </i>
    <i name="atom">  11559.05757976 </i>
    <i name="e_fr_energy">    -92.09101763 </i>
    <i name="e_wo_entrp">    -92.09101763 </i>
    <i name="e_0_energy">    -92.09101763 </i>
   </energy>
  </scstep>
  <scstep>
   <time name="diag">    0.03    0.03</time>
   <time name="diis">    0.11    0.11</time>
   <time name="orth">    0.01    0.01</time>
   <time name="total">    0.65    0.78</time>
   <energy>
    <i name="e_fr_energy">    -92.09146888 </i>
    <i name="e_wo_entrp">    -92.09146888 </i>
    <i name="e_0_energy">    -92.09146888 </i>
   </energy>
  </scstep>
  <scstep>
   <time name="diag">    0.04    0.04</time>
   <time name="diis">    0.09    0.09</time>
   <time name="orth">    0.01    0.01</time>
   <time name="total">    0.67    0.72</time>
   <energy>
    <i name="e_fr_energy">    -92.09143117 </i>
    <i name="e_wo_entrp">    -92.09143117 </i>
    <i name="e_0_energy">    -92.09143117 </i>
   </energy>
  </scstep>
  <scstep>
   <time name="diag">    0.02    0.03</time>
   <time name="diis">    0.05    0.09</time>
   <time name="orth">    0.00    0.01</time>
   <time name="total">    0.53    0.70</time>
   <energy>
    <i name="alphaZ">    441.37612112 </i>
    <i name="ewald">  -7297.38252195 </i>
    <i name="hartreedc">  -3784.59428033 </i>
    <i name="XCdc">    500.98698093 </i>
    <i name="pawpsdc">  12267.87932327 </i>
    <i name="pawaedc"> -12502.49890479 </i>
    <i name="eentropy">     -0.00000000 </i>
    <i name="bandstr">  -1276.91572328 </i>
    <i name="atom">  11559.05757976 </i>
    <i name="e_fr_energy">    -92.09142528 </i>
    <i name="e_wo_entrp">    -92.09142528 </i>
    <i name="e_0_energy">    -92.09142528 </i>
   </energy>
  </scstep>
  <structure>
   <crystal>
    <varray name="basis" >
     <v>       2.91633100       0.00000000       0.00000000 </v>
     <v>      -0.00000100       4.58096600       0.00014500 </v>
     <v>       0.00000200       0.00030000       9.43439300 </v>
    </varray>
    <i name="volume">    126.03984071 </i>
    <varray name="rec_basis" >
     <v>       0.34289661       0.00000007      -0.00000007 </v>
     <v>       0.00000000       0.21829457      -0.00000694 </v>
     <v>       0.00000000      -0.00000336       0.10599516 </v>
    </varray>
   </crystal>
   <varray name="positions" >
    <v>       0.24999990       0.02067465       0.86798450 </v>
    <v>       0.74999955       0.97932241       0.13201506 </v>
    <v>       0.75000009       0.52071944       0.63199058 </v>
    <v>       0.25000049       0.47928312       0.36800608 </v>
    <v>       0.25000007       0.69616647       0.54513246 </v>
    <v>       0.74999998       0.19610912       0.95485980 </v>
    <v>       0.24999979       0.80389300       0.04514692 </v>
    <v>       0.75000014       0.30383196       0.45486405 </v>
    <v>       0.24999973       0.17604627       0.20965853 </v>
    <v>       0.24999998       0.32388908       0.70960025 </v>
    <v>       0.75000029       0.67610987       0.29039853 </v>
    <v>       0.74999999       0.82395559       0.79034424 </v>
   </varray>
  </structure>
  <varray name="forces" >
   <v>       0.00000405       0.03460328      -0.42494554 </v>
   <v>       0.00000922      -0.03386546       0.42516294 </v>
   <v>      -0.00000377       0.03294815       0.42638080 </v>
   <v>      -0.00001203      -0.03364800      -0.42698062 </v>
   <v>       0.00000631       0.19427188       0.24674427 </v>
   <v>      -0.00000253       0.19533794      -0.24680732 </v>
   <v>      -0.00000442      -0.19572245       0.24622116 </v>
   <v>       0.00000200      -0.19403804      -0.24611708 </v>
   <v>       0.00000089      -0.06817908      -0.04929702 </v>
   <v>       0.00000107       0.07092395      -0.04747850 </v>
   <v>       0.00000251      -0.07084188       0.04769011 </v>
   <v>      -0.00000328       0.06820972       0.04942681 </v>
  </varray>
  <varray name="stress" >
   <v>      36.80527797       0.00028231      -0.00023625 </v>
   <v>       0.00028276     -47.42253153      -0.01295562 </v>
   <v>      -0.00023512      -0.01295110     -27.07777685 </v>
  </varray>
  <energy>
   <i name="e_fr_energy">    -92.09142528 </i>
   <i name="e_wo_entrp">    -92.09142528 </i>
   <i name="e_0_energy">     -0.00000000 </i>
  </energy>
  <time name="totalsc">    3.12    4.39</time>
 </calculation>
 <calculation>
  <scstep>
   <time name="dav">    0.12    0.24</time>
   <time name="total">    0.45    0.74</time>
   <energy>
    <i name="alphaZ">    441.37612112 </i>
    <i name="ewald">  -7314.53578653 </i>
    <i name="hartreedc">  -3768.82270602 </i>
    <i name="XCdc">    500.94193363 </i>
    <i name="pawpsdc">  12268.30406495 </i>
    <i name="pawaedc"> -12502.91855033 </i>
    <i name="eentropy">     -0.00000000 </i>
    <i name="bandstr">  -1275.23914381 </i>
    <i name="atom">  11559.05757976 </i>
    <i name="e_fr_energy">    -91.83648723 </i>
    <i name="e_wo_entrp">    -91.83648723 </i>
    <i name="e_0_energy">    -91.83648723 </i>
   </energy>
  </scstep>
  <scstep>
   <time name="diag">    0.02    0.04</time>
   <time name="diis">    0.10    0.11</time>
   <time name="orth">    0.01    0.01</time>
   <time name="total">    0.45    0.65</time>
   <energy>
    <i name="e_fr_energy">    -92.14223604 </i>
    <i name="e_wo_entrp">    -92.14223604 </i>
    <i name="e_0_energy">    -92.14223604 </i>
   </energy>
  </scstep>
  <scstep>
   <time name="diag">    0.03    0.03</time>
   <time name="diis">    0.10    0.10</time>
   <time name="orth">    0.01    0.01</time>
   <time name="total">    0.61    0.82</time>
   <energy>
    <i name="e_fr_energy">    -92.11729013 </i>
    <i name="e_wo_entrp">    -92.11729013 </i>
    <i name="e_0_energy">    -92.11729013 </i>
   </energy>
  </scstep>
  <scstep>
   <time name="diag">    0.02    0.03</time>
   <time name="diis">    0.06    0.11</time>
   <time name="orth">    0.00    0.01</time>
   <time name="total">    0.55    0.71</time>
   <energy>
    <i name="e_fr_energy">    -92.11613176 </i>
    <i name="e_wo_entrp">    -92.11613176 </i>
    <i name="e_0_energy">    -92.11613176 </i>
   </energy>
  </scstep>
  <scstep>
   <time name="diag">    0.03    0.03</time>
   <time name="diis">    0.09    0.09</time>
   <time name="orth">    0.01    0.01</time>
   <time name="total">    0.41    0.67</time>
   <energy>
    <i name="e_fr_energy">    -92.11535267 </i>
    <i name="e_wo_entrp">    -92.11535267 </i>
    <i name="e_0_energy">    -92.11535267 </i>
   </energy>
  </scstep>
  <scstep>
   <time name="diag">    0.02    0.03</time>
   <time name="diis">    0.05    0.10</time>
   <time name="orth">    0.00    0.01</time>
   <time name="total">    0.61    0.87</time>
   <energy>
    <i name="e_fr_energy">    -92.11531590 </i>
    <i name="e_wo_entrp">    -92.11531590 </i>
    <i name="e_0_energy">    -92.11531590 </i>
   </energy>
  </scstep>
  <scstep>
   <time name="diag">    0.02    0.03</time>
   <time name="diis">    0.07    0.09</time>
   <time name="orth">    0.01    0.01</time>
   <time name="total">    0.43    0.69</time>
   <energy>
    <i name="e_fr_energy">    -92.11529212 </i>
    <i name="e_wo_entrp">    -92.11529212 </i>
    <i name="e_0_energy">    -92.11529212 </i>
   </energy>
  </scstep>
  <scstep>
   <time name="diag">    0.03    0.04</time>
   <time name="diis">    0.06    0.06</time>
   <time name="orth">    0.01    0.01</time>
   <time name="total">    0.51    0.72</time>
   <energy>
    <i name="alphaZ">    441.37612112 </i>
    <i name="ewald">  -7314.53578653 </i>
    <i name="hartreedc">  -3768.76819934 </i>
    <i name="XCdc">    500.95001016 </i>
    <i name="pawpsdc">  12252.35007566 </i>
    <i name="pawaedc"> -12486.83635600 </i>
    <i name="eentropy">     -0.00000000 </i>
    <i name="bandstr">  -1275.70873180 </i>
    <i name="atom">  11559.05757976 </i>
    <i name="e_fr_energy">    -92.11528696 </i>
    <i name="e_wo_entrp">    -92.11528696 </i>
    <i name="e_0_energy">    -92.11528696 </i>
   </energy>
  </scstep>
  <structure>
   <crystal>
    <varray name="basis" >
     <v>       2.91633100       0.00000000       0.00000000 </v>
     <v>      -0.00000100       4.58096600       0.00014500 </v>
     <v>       0.00000200       0.00030000       9.43439300 </v>
    </varray>
    <i name="volume">    126.03984071 </i>
    <varray name="rec_basis" >
     <v>       0.34289661       0.00000007      -0.00000007 </v>
     <v>       0.00000000       0.21829457      -0.00000694 </v>
     <v>       0.00000000      -0.00000336       0.10599516 </v>
    </varray>
   </crystal>
   <varray name="positions" >
    <v>       0.24999996       0.02102187       0.86589769 </v>
    <v>       0.74999972       0.97898270       0.13410279 </v>
    <v>       0.75000003       0.52104888       0.63408453 </v>
    <v>       0.25000028       0.47894640       0.36590920 </v>
    <v>       0.25000018       0.69770874       0.54665515 </v>
    <v>       0.74999994       0.19766491       0.95333704 </v>
    <v>       0.24999970       0.80233319       0.04666672 </v>
    <v>       0.75000018       0.30229217       0.45334459 </v>
    <v>       0.24999974       0.17484742       0.20919727 </v>
    <v>       0.24999999       0.32511926       0.70914842 </v>
    <v>       0.75000034       0.67488059       0.29085141 </v>
    <v>       0.74999993       0.82515486       0.79080619 </v>
   </varray>
  </structure>
  <varray name="forces" >
   <v>      -0.00000183       0.38124750       0.17943008 </v>
   <v>      -0.00000073      -0.38181357      -0.18045856 </v>
   <v>       0.00000239       0.38183562      -0.18015078 </v>
   <v>       0.00000075      -0.38160713       0.17996271 </v>
   <v>       0.00000018       0.00926812       0.20083528 </v>
   <v>       0.00000041       0.01008559      -0.20099527 </v>
   <v>       0.00000352      -0.00969373       0.20140999 </v>
   <v>      -0.00000431      -0.00943627      -0.20067141 </v>
   <v>       0.00000514       0.21178717       0.13275530 </v>
   <v>      -0.00000149      -0.21149307       0.13531996 </v>
   <v>      -0.00000499       0.21135375      -0.13497712 </v>
   <v>       0.00000096      -0.21153398      -0.13246017 </v>
  </varray>
  <varray name="stress" >
   <v>      33.93134420       0.00019895      -0.00026683 </v>
   <v>       0.00019988     -43.23802284      -0.04791768 </v>
   <v>      -0.00026634      -0.04791472     -32.34367580 </v>
  </varray>
  <energy>
   <i name="e_fr_energy">    -92.11528696 </i>
   <i name="e_wo_entrp">    -92.11528696 </i>
   <i name="e_0_energy">     -0.00000000 </i>
  </energy>
  <time name="totalsc">    5.06    7.37</time>
 </calculation>
 <calculation>
  <scstep>
   <time name="dav">    0.17    0.23</time>
   <time name="total">    0.50    0.80</time>
   <energy>
    <i name="alphaZ">    441.37612112 </i>
    <i name="ewald">  -7312.68091928 </i>
    <i name="hartreedc">  -3770.47346903 </i>
    <i name="XCdc">    500.95557160 </i>
    <i name="pawpsdc">  12251.47829156 </i>
    <i name="pawaedc"> -12485.96358050 </i>
    <i name="eentropy">     -0.00000000 </i>
    <i name="bandstr">  -1275.86141095 </i>
    <i name="atom">  11559.05757976 </i>
    <i name="e_fr_energy">    -92.11181572 </i>
    <i name="e_wo_entrp">    -92.11181572 </i>
    <i name="e_0_energy">    -92.11181572 </i>
   </energy>
  </scstep>
  <scstep>
   <time name="diag">    0.03    0.03</time>
   <time name="diis">    0.09    0.12</time>
   <time name="orth">    0.00    0.01</time>
   <time name="total">    0.68    0.79</time>
   <energy>
    <i name="e_fr_energy">    -92.11604965 </i>
    <i name="e_wo_entrp">    -92.11604965 </i>
    <i name="e_0_energy">    -92.11604965 </i>
   </energy>
  </scstep>
  <scstep>
   <time name="diag">    0.02    0.03</time>
   <time name="diis">    0.06    0.12</time>
   <time name="orth">    0.00    0.01</time>
   <time name="total">    0.65    0.83</time>
   <energy>
    <i name="e_fr_energy">    -92.11569623 </i>
    <i name="e_wo_entrp">    -92.11569623 </i>
    <i name="e_0_energy">    -92.11569623 </i>
   </energy>
  </scstep>
  <scstep>
   <time name="diag">    0.03    0.03</time>
   <time name="diis">    0.06    0.08</time>
   <time name="orth">    0.00    0.01</time>
   <time name="total">    0.61    0.68</time>
   <energy>
    <i name="e_fr_energy">    -92.11567988 </i>
    <i name="e_wo_entrp">    -92.11567988 </i>
    <i name="e_0_energy">    -92.11567988 </i>
   </energy>
  </scstep>
  <scstep>
   <time name="diag">    0.03    0.03</time>
   <time name="diis">    0.07    0.07</time>
   <time name="orth">    0.01    0.01</time>
   <time name="total">    0.49    0.61</time>
   <energy>
    <i name="e_fr_energy">    -92.11566781 </i>
    <i name="e_wo_entrp">    -92.11566781 </i>
    <i name="e_0_energy">    -92.11566781 </i>
   </energy>
  </scstep>
  <scstep>
   <time name="diag">    0.02    0.03</time>
   <time name="diis">    0.05    0.06</time>
   <time name="orth">    0.01    0.01</time>
   <time name="total">    0.32    0.60</time>
   <energy>
    <i name="alphaZ">    441.37612112 </i>
    <i name="ewald">  -7312.68091928 </i>
    <i name="hartreedc">  -3770.45685845 </i>
    <i name="XCdc">    500.95284015 </i>
    <i name="pawpsdc">  12252.62125130 </i>
    <i name="pawaedc"> -12487.11873931 </i>
    <i name="eentropy">     -0.00000000 </i>
    <i name="bandstr">  -1275.86694263 </i>
    <i name="atom">  11559.05757976 </i>
    <i name="e_fr_energy">    -92.11566735 </i>
    <i name="e_wo_entrp">    -92.11566735 </i>
    <i name="e_0_energy">    -92.11566735 </i>
   </energy>
  </scstep>
  <structure>
   <crystal>
    <varray name="basis" >
     <v>       2.91633100       0.00000000       0.00000000 </v>
     <v>      -0.00000100       4.58096600       0.00014500 </v>
     <v>       0.00000200       0.00030000       9.43439300 </v>
    </varray>
    <i name="volume">    126.03984071 </i>
    <varray name="rec_basis" >
     <v>       0.34289661       0.00000007      -0.00000007 </v>
     <v>       0.00000000       0.21829457      -0.00000694 </v>
     <v>       0.00000000      -0.00000336       0.10599516 </v>
    </varray>
   </crystal>
   <varray name="positions" >
    <v>       0.24999995       0.02098108       0.86614284 </v>
    <v>       0.74999970       0.97902261       0.13385753 </v>
    <v>       0.75000004       0.52101018       0.63383854 </v>
    <v>       0.25000031       0.47898596       0.36615553 </v>
    <v>       0.25000016       0.69752756       0.54647627 </v>
    <v>       0.74999995       0.19748214       0.95351593 </v>
    <v>       0.24999971       0.80251643       0.04648818 </v>
    <v>       0.75000017       0.30247306       0.45352309 </v>
    <v>       0.24999973       0.17498826       0.20925145 </v>
    <v>       0.24999999       0.32497474       0.70920150 </v>
    <v>       0.75000033       0.67502500       0.29079821 </v>
    <v>       0.74999994       0.82501397       0.79075192 </v>
   </varray>
  </structure>
  <varray name="forces" >
   <v>      -0.00000100       0.34033628       0.11501091 </v>
   <v>       0.00000080      -0.34072130      -0.11592892 </v>
   <v>       0.00000159       0.34060902      -0.11526928 </v>
   <v>      -0.00000124      -0.34032281       0.11514886 </v>
   <v>       0.00000086       0.02959377       0.20449768 </v>
   <v>       0.00000010       0.03046761      -0.20466881 </v>
   <v>       0.00000269      -0.03021620       0.20496663 </v>
   <v>      -0.00000364      -0.02977287      -0.20431806 </v>
   <v>       0.00000460       0.17904066       0.11251905 </v>
   <v>      -0.00000117      -0.17853962       0.11508966 </v>
   <v>      -0.00000402       0.17838403      -0.11479109 </v>
   <v>       0.00000043      -0.17885859      -0.11225663 </v>
  </varray>
  <varray name="stress" >
   <v>      35.01735921       0.00020927      -0.00026420 </v>
   <v>       0.00020977     -42.72980428      -0.04095430 </v>
   <v>      -0.00026451      -0.04095142     -30.89944085 </v>
  </varray>
  <energy>
   <i name="e_fr_energy">    -92.11566735 </i>
   <i name="e_wo_entrp">    -92.11566735 </i>
   <i name="e_0_energy">     -0.00000000 </i>
  </energy>
  <time name="totalsc">    4.65    5.76</time>
 </calculation>
 <calculation>
  <scstep>
   <time name="dav">    0.22    0.22</time>
   <time name="total">    0.73    0.74</time>
   <energy>
    <i name="alphaZ">    441.37612112 </i>
    <i name="ewald">  -7324.72649879 </i>
    <i name="hartreedc">  -3759.35225998 </i>
    <i name="XCdc">    500.90903659 </i>
    <i name="pawpsdc">  12252.64552040 </i>
    <i name="pawaedc"> -12487.14470900 </i>
    <i name="eentropy">     -0.00000000 </i>
    <i name="bandstr">  -1274.73058484 </i>
    <i name="atom">  11559.05757976 </i>
    <i name="e_fr_energy">    -91.96579475 </i>
    <i name="e_wo_entrp">    -91.96579475 </i>
    <i name="e_0_energy">    -91.96579475 </i>
   </energy>
  </scstep>
  <scstep>
   <time name="diag">    0.03    0.03</time>
   <time name="diis">    0.10    0.10</time>
   <time name="orth">    0.01    0.01</time>
   <time name="total">    0.60    0.61</time>
   <energy>
    <i name="e_fr_energy">    -92.17272908 </i>
    <i name="e_wo_entrp">    -92.17272908 </i>
    <i name="e_0_energy">    -92.17272908 </i>
   </energy>
  </scstep>
  <scstep>
   <time name="diag">    0.03    0.03</time>
   <time name="diis">    0.10    0.10</time>
   <time name="orth">    0.01    0.01</time>
   <time name="total">    0.61    0.62</time>
   <energy>
    <i name="e_fr_energy">    -92.15649113 </i>
    <i name="e_wo_entrp">    -92.15649113 </i>
    <i name="e_0_energy">    -92.15649113 </i>
   </energy>
  </scstep>
  <scstep>
   <time name="diag">    0.02    0.04</time>
   <time name="diis">    0.06    0.11</time>
   <time name="orth">    0.00    0.01</time>
   <time name="total">    0.38    0.63</time>
   <energy>
    <i name="e_fr_energy">    -92.15566331 </i>
    <i name="e_wo_entrp">    -92.15566331 </i>
    <i name="e_0_energy">    -92.15566331 </i>
   </energy>
  </scstep>
  <scstep>
   <time name="diag">    0.03    0.03</time>
   <time name="diis">    0.10    0.10</time>
   <time name="orth">    0.01    0.01</time>
   <time name="total">    0.66    0.70</time>
   <energy>
    <i name="e_fr_energy">    -92.15499134 </i>
    <i name="e_wo_entrp">    -92.15499134 </i>
    <i name="e_0_energy">    -92.15499134 </i>
   </energy>
  </scstep>
  <scstep>
   <time name="diag">    0.03    0.03</time>
   <time name="diis">    0.09    0.09</time>
   <time name="orth">    0.01    0.01</time>
   <time name="total">    0.63    0.63</time>
   <energy>
    <i name="e_fr_energy">    -92.15486418 </i>
    <i name="e_wo_entrp">    -92.15486418 </i>
    <i name="e_0_energy">    -92.15486418 </i>
   </energy>
  </scstep>
  <scstep>
   <time name="diag">    0.03    0.03</time>
   <time name="diis">    0.10    0.10</time>
   <time name="orth">    0.01    0.01</time>
   <time name="total">    0.64    0.64</time>
   <energy>
    <i name="e_fr_energy">    -92.15484504 </i>
    <i name="e_wo_entrp">    -92.15484504 </i>
    <i name="e_0_energy">    -92.15484504 </i>
   </energy>
  </scstep>
  <scstep>
   <time name="diag">    0.03    0.03</time>
   <time name="diis">    0.07    0.07</time>
   <time name="orth">    0.01    0.01</time>
   <time name="total">    0.72    0.73</time>
   <energy>
    <i name="alphaZ">    441.37612112 </i>
    <i name="ewald">  -7324.72649879 </i>
    <i name="hartreedc">  -3759.28060780 </i>
    <i name="XCdc">    500.88072591 </i>
    <i name="pawpsdc">  12240.49000678 </i>
    <i name="pawaedc"> -12474.86555564 </i>
    <i name="eentropy">     -0.00000000 </i>
    <i name="bandstr">  -1275.08661492 </i>
    <i name="atom">  11559.05757976 </i>
    <i name="e_fr_energy">    -92.15484358 </i>
    <i name="e_wo_entrp">    -92.15484358 </i>
    <i name="e_0_energy">    -92.15484358 </i>
   </energy>
  </scstep>
  <structure>
   <crystal>
    <varray name="basis" >
     <v>       2.91633100       0.00000000       0.00000000 </v>
     <v>      -0.00000100       4.58096600       0.00014500 </v>
     <v>       0.00000200       0.00030000       9.43439300 </v>
    </varray>
    <i name="volume">    126.03984071 </i>
    <varray name="rec_basis" >
     <v>       0.34289661       0.00000007      -0.00000007 </v>
     <v>       0.00000000       0.21829457      -0.00000694 </v>
     <v>       0.00000000      -0.00000336       0.10599516 </v>
    </varray>
   </crystal>
   <varray name="positions" >
    <v>       0.24999998       0.02391979       0.86540047 </v>
    <v>       0.74999980       0.97608509       0.13459683 </v>
    <v>       0.75000003       0.52394099       0.63458390 </v>
    <v>       0.25000017       0.47605330       0.36540803 </v>
    <v>       0.25000023       0.69864675       0.54814557 </v>
    <v>       0.74999993       0.19861619       0.95184592 </v>
    <v>       0.24999970       0.80138211       0.04815767 </v>
    <v>       0.75000015       0.30135385       0.45185634 </v>
    <v>       0.24999980       0.17574508       0.20942788 </v>
    <v>       0.24999999       0.32423979       0.70939340 </v>
    <v>       0.75000031       0.67575922       0.29060807 </v>
    <v>       0.74999992       0.82425885       0.79057691 </v>
   </varray>
  </structure>
  <varray name="forces" >
   <v>      -0.00000377       0.56816476       0.02774441 </v>
   <v>      -0.00000376      -0.56839052      -0.02900089 </v>
   <v>       0.00000376       0.56825153      -0.02871512 </v>
   <v>       0.00000568      -0.56814805       0.02822376 </v>
   <v>      -0.00000291      -0.05944464       0.21335222 </v>
   <v>       0.00000170      -0.05909504      -0.21312888 </v>
   <v>       0.00000565       0.05939480       0.21378615 </v>
   <v>      -0.00000534       0.05933932      -0.21306205 </v>
   <v>       0.00000496       0.26945145       0.05954974 </v>
   <v>      -0.00000135      -0.26979485       0.06175192 </v>
   <v>      -0.00000714       0.26955272      -0.06120041 </v>
   <v>       0.00000252      -0.26928148      -0.05930084 </v>
  </varray>
  <varray name="stress" >
   <v>      30.36702756       0.00014189      -0.00028216 </v>
   <v>       0.00014214     -49.10195536      -0.05165715 </v>
   <v>      -0.00028244      -0.05165580     -35.73357744 </v>
  </varray>
  <energy>
   <i name="e_fr_energy">    -92.15484358 </i>
   <i name="e_wo_entrp">    -92.15484358 </i>
   <i name="e_0_energy">     -0.00000000 </i>
  </energy>
  <time name="totalsc">    6.64    6.98</time>
 </calculation>
 <calculation>
  <scstep>
   <time name="dav">    0.24    0.24</time>
   <time name="total">    0.93    0.94</time>
   <energy>
    <i name="alphaZ">    441.37612112 </i>
    <i name="ewald">  -7350.54609073 </i>
    <i name="hartreedc">  -3735.17463405 </i>
    <i name="XCdc">    500.87231091 </i>
    <i name="pawpsdc">  12239.71307621 </i>
    <i name="pawaedc"> -12474.08701802 </i>
    <i name="eentropy">     -0.00000000 </i>
    <i name="bandstr">  -1271.80488865 </i>
    <i name="atom">  11559.05757976 </i>
    <i name="e_fr_energy">    -90.59354346 </i>
    <i name="e_wo_entrp">    -90.59354346 </i>
    <i name="e_0_energy">    -90.59354346 </i>
   </energy>
  </scstep>
  <scstep>
   <time name="diag">    0.02    0.03</time>
   <time name="diis">    0.06    0.13</time>
   <time name="orth">    0.00    0.01</time>
   <time name="total">    0.54    0.72</time>
   <energy>
    <i name="e_fr_energy">    -92.45492091 </i>
    <i name="e_wo_entrp">    -92.45492091 </i>
    <i name="e_0_energy">    -92.45492091 </i>
   </energy>
  </scstep>
  <scstep>
   <time name="diag">    0.03    0.03</time>
   <time name="diis">    0.06    0.11</time>
   <time name="orth">    0.01    0.01</time>
   <time name="total">    0.62    0.71</time>
   <energy>
    <i name="e_fr_energy">    -92.34739377 </i>
    <i name="e_wo_entrp">    -92.34739377 </i>
    <i name="e_0_energy">    -92.34739377 </i>
   </energy>
  </scstep>
  <scstep>
   <time name="diag">    0.02    0.03</time>
   <time name="diis">    0.06    0.11</time>
   <time name="orth">    0.01    0.01</time>
   <time name="total">    0.58    0.76</time>
   <energy>
    <i name="e_fr_energy">    -92.34058440 </i>
    <i name="e_wo_entrp">    -92.34058440 </i>
    <i name="e_0_energy">    -92.34058440 </i>
   </energy>
  </scstep>
  <scstep>
   <time name="diag">    0.02    0.03</time>
   <time name="diis">    0.06    0.11</time>
   <time name="orth">    0.00    0.01</time>
   <time name="total">    0.67    0.81</time>
   <energy>
    <i name="e_fr_energy">    -92.33729960 </i>
    <i name="e_wo_entrp">    -92.33729960 </i>
    <i name="e_0_energy">    -92.33729960 </i>
   </energy>
  </scstep>
  <scstep>
   <time name="diag">    0.02    0.03</time>
   <time name="diis">    0.08    0.10</time>
   <time name="orth">    0.01    0.01</time>
   <time name="total">    0.43    0.65</time>
   <energy>
    <i name="e_fr_energy">    -92.33500155 </i>
    <i name="e_wo_entrp">    -92.33500155 </i>
    <i name="e_0_energy">    -92.33500155 </i>
   </energy>
  </scstep>
  <scstep>
   <time name="diag">    0.02    0.03</time>
   <time name="diis">    0.07    0.10</time>
   <time name="orth">    0.01    0.01</time>
   <time name="total">    0.47    0.66</time>
   <energy>
    <i name="e_fr_energy">    -92.33494073 </i>
    <i name="e_wo_entrp">    -92.33494073 </i>
    <i name="e_0_energy">    -92.33494073 </i>
   </energy>
  </scstep>
  <scstep>
   <time name="diag">    0.02    0.04</time>
   <time name="diis">    0.08    0.10</time>
   <time name="orth">    0.01    0.01</time>
   <time name="total">    0.43    0.66</time>
   <energy>
    <i name="alphaZ">    441.37612112 </i>
    <i name="ewald">  -7350.54609073 </i>
    <i name="hartreedc">  -3736.01913792 </i>
    <i name="XCdc">    500.77415003 </i>
    <i name="pawpsdc">  12253.47345352 </i>
    <i name="pawaedc"> -12487.47444392 </i>
    <i name="eentropy">     -0.00000000 </i>
    <i name="bandstr">  -1272.97657309 </i>
    <i name="atom">  11559.05757976 </i>
    <i name="e_fr_energy">    -92.33494123 </i>
    <i name="e_wo_entrp">    -92.33494123 </i>
    <i name="e_0_energy">    -92.33494123 </i>
   </energy>
  </scstep>
  <structure>
   <crystal>
    <varray name="basis" >
     <v>       2.91633100       0.00000000       0.00000000 </v>
     <v>      -0.00000100       4.58096600       0.00014500 </v>
     <v>       0.00000200       0.00030000       9.43439300 </v>
    </varray>
    <i name="volume">    126.03984071 </i>
    <varray name="rec_basis" >
     <v>       0.34289661       0.00000007      -0.00000007 </v>
     <v>       0.00000000       0.21829457      -0.00000694 </v>
     <v>       0.00000000      -0.00000336       0.10599516 </v>
    </varray>
   </crystal>
   <varray name="positions" >
    <v>       0.25000006       0.03273591       0.86317334 </v>
    <v>       0.75000012       0.96727255       0.13681476 </v>
    <v>       0.74999999       0.53273341       0.63681997 </v>
    <v>       0.24999975       0.46725531       0.36316553 </v>
    <v>       0.25000045       0.70200432       0.55315347 </v>
    <v>       0.74999986       0.20201834       0.94683588 </v>
    <v>       0.24999966       0.79797913       0.05316615 </v>
    <v>       0.75000008       0.29799621       0.44685609 </v>
    <v>       0.24999998       0.17801556       0.20995716 </v>
    <v>       0.24999997       0.32203493       0.70996911 </v>
    <v>       0.75000025       0.67796186       0.29003765 </v>
    <v>       0.74999984       0.82199348       0.79005189 </v>
   </varray>
  </structure>
  <varray name="forces" >
   <v>      -0.00001235       0.93620321      -0.25175181 </v>
   <v>      -0.00001845      -0.93630100       0.24980553 </v>
   <v>       0.00001208       0.93738497       0.24892149 </v>
   <v>       0.00002639      -0.93709247      -0.24948053 </v>
   <v>      -0.00001603      -0.24134784       0.16390849 </v>
   <v>       0.00000751      -0.24297674      -0.16262379 </v>
   <v>       0.00001801       0.24343133       0.16418950 </v>
   <v>      -0.00001377       0.24149331      -0.16385128 </v>
   <v>       0.00000574       0.39866398      -0.09835581 </v>
   <v>      -0.00000222      -0.40232751      -0.09739849 </v>
   <v>      -0.00001583       0.40176647       0.09812837 </v>
   <v>       0.00000892      -0.39889771       0.09850833 </v>
  </varray>
  <varray name="stress" >
   <v>      19.86569894      -0.00004886      -0.00034199 </v>
   <v>      -0.00004790     -58.14653983      -0.09020849 </v>
   <v>      -0.00034221      -0.09021087     -39.09101725 </v>
  </varray>
  <energy>
   <i name="e_fr_energy">    -92.33494123 </i>
   <i name="e_wo_entrp">    -92.33494123 </i>
   <i name="e_0_energy">     -0.00000000 </i>
  </energy>
  <time name="totalsc">    5.75    7.43</time>
 </calculation>
 <calculation>
  <scstep>
   <time name="dav">    0.22    0.24</time>
   <time name="total">    0.49    0.79</time>
   <energy>
    <i name="alphaZ">    441.37612112 </i>
    <i name="ewald">  -7356.47627030 </i>
    <i name="hartreedc">  -3728.92730521 </i>
    <i name="XCdc">    501.23370320 </i>
    <i name="pawpsdc">  12249.09345182 </i>
    <i name="pawaedc"> -12483.09129586 </i>
    <i name="eentropy">     -0.00000000 </i>
    <i name="bandstr">  -1267.95378893 </i>
    <i name="atom">  11559.05757976 </i>
    <i name="e_fr_energy">    -85.68780439 </i>
    <i name="e_wo_entrp">    -85.68780439 </i>
    <i name="e_0_energy">    -85.68780439 </i>
   </energy>
  </scstep>
  <scstep>
   <time name="diag">    0.03    0.03</time>
   <time name="diis">    0.09    0.12</time>
   <time name="orth">    0.00    0.01</time>
   <time name="total">    0.54    0.75</time>
   <energy>
    <i name="e_fr_energy">    -92.99887818 </i>
    <i name="e_wo_entrp">    -92.99887818 </i>
    <i name="e_0_energy">    -92.99887818 </i>
   </energy>
  </scstep>
  <scstep>
   <time name="diag">    0.02    0.03</time>
   <time name="diis">    0.10    0.10</time>
   <time name="orth">    0.01    0.01</time>
   <time name="total">    0.48    0.66</time>
   <energy>
    <i name="e_fr_energy">    -92.68871217 </i>
    <i name="e_wo_entrp">    -92.68871217 </i>
    <i name="e_0_energy">    -92.68871217 </i>
   </energy>
  </scstep>
  <scstep>
   <time name="diag">    0.02    0.03</time>
   <time name="diis">    0.11    0.11</time>
   <time name="orth">    0.01    0.01</time>
   <time name="total">    0.57    0.77</time>
   <energy>
    <i name="e_fr_energy">    -92.67468398 </i>
    <i name="e_wo_entrp">    -92.67468398 </i>
    <i name="e_0_energy">    -92.67468398 </i>
   </energy>
  </scstep>
  <scstep>
   <time name="diag">    0.02    0.03</time>
   <time name="diis">    0.05    0.10</time>
   <time name="orth">    0.00    0.01</time>
   <time name="total">    0.41    0.71</time>
   <energy>
    <i name="e_fr_energy">    -92.65678474 </i>
    <i name="e_wo_entrp">    -92.65678474 </i>
    <i name="e_0_energy">    -92.65678474 </i>
   </energy>
  </scstep>
  <scstep>
   <time name="diag">    0.02    0.03</time>
   <time name="diis">    0.10    0.12</time>
   <time name="orth">    0.01    0.01</time>
   <time name="total">    0.55    0.75</time>
   <energy>
    <i name="e_fr_energy">    -92.65206425 </i>
    <i name="e_wo_entrp">    -92.65206425 </i>
    <i name="e_0_energy">    -92.65206425 </i>
   </energy>
  </scstep>
  <scstep>
   <time name="diag">    0.02    0.03</time>
   <time name="diis">    0.09    0.10</time>
   <time name="orth">    0.01    0.01</time>
   <time name="total">    0.44    0.63</time>
   <energy>
    <i name="e_fr_energy">    -92.64996108 </i>
    <i name="e_wo_entrp">    -92.64996108 </i>
    <i name="e_0_energy">    -92.64996108 </i>
   </energy>
  </scstep>
  <scstep>
   <time name="diag">    0.03    0.03</time>
   <time name="diis">    0.11    0.11</time>
   <time name="orth">    0.01    0.01</time>
   <time name="total">    0.51    0.71</time>
   <energy>
    <i name="e_fr_energy">    -92.64979608 </i>
    <i name="e_wo_entrp">    -92.64979608 </i>
    <i name="e_0_energy">    -92.64979608 </i>
   </energy>
  </scstep>
  <scstep>
   <time name="diag">    0.03    0.03</time>
   <time name="diis">    0.09    0.10</time>
   <time name="orth">    0.01    0.01</time>
   <time name="total">    0.52    0.65</time>
   <energy>
    <i name="e_fr_energy">    -92.64969114 </i>
    <i name="e_wo_entrp">    -92.64969114 </i>
    <i name="e_0_energy">    -92.64969114 </i>
   </energy>
  </scstep>
  <scstep>
   <time name="diag">    0.03    0.03</time>
   <time name="diis">    0.08    0.08</time>
   <time name="orth">    0.01    0.01</time>
   <time name="total">    0.58    0.69</time>
   <energy>
    <i name="alphaZ">    441.37612112 </i>
    <i name="ewald">  -7356.47627030 </i>
    <i name="hartreedc">  -3733.03701760 </i>
    <i name="XCdc">    501.03761405 </i>
    <i name="pawpsdc">  12464.60936747 </i>
    <i name="pawaedc"> -12698.23632502 </i>
    <i name="eentropy">     -0.00000000 </i>
    <i name="bandstr">  -1270.98075240 </i>
    <i name="atom">  11559.05757976 </i>
    <i name="e_fr_energy">    -92.64968292 </i>
    <i name="e_wo_entrp">    -92.64968292 </i>
    <i name="e_0_energy">    -92.64968292 </i>
   </energy>
  </scstep>
  <structure>
   <crystal>
    <varray name="basis" >
     <v>       2.91633100       0.00000000       0.00000000 </v>
     <v>      -0.00000100       4.58096600       0.00014500 </v>
     <v>       0.00000200       0.00030000       9.43439300 </v>
    </varray>
    <i name="volume">    126.03984071 </i>
    <varray name="rec_basis" >
     <v>       0.34289661       0.00000007      -0.00000007 </v>
     <v>       0.00000000       0.21829457      -0.00000694 </v>
     <v>       0.00000000      -0.00000336       0.10599516 </v>
    </varray>
   </crystal>
   <varray name="positions" >
    <v>       0.25000021       0.05036816       0.85871909 </v>
    <v>       0.75000076       0.94964745       0.14125061 </v>
    <v>       0.74999990       0.55031826       0.64129211 </v>
    <v>       0.24999891       0.44965933       0.35868052 </v>
    <v>       0.25000088       0.70871945       0.56316926 </v>
    <v>       0.74999973       0.20882265       0.93681580 </v>
    <v>       0.24999958       0.79117317       0.06318309 </v>
    <v>       0.74999993       0.29128093       0.43685559 </v>
    <v>       0.25000035       0.18255652       0.21101572 </v>
    <v>       0.24999994       0.31762520       0.71112054 </v>
    <v>       0.75000012       0.68236714       0.28889682 </v>
    <v>       0.74999968       0.81746274       0.78900185 </v>
   </varray>
  </structure>
  <varray name="forces" >
   <v>      -0.00003510       0.47308756      -0.64309691 </v>
   <v>      -0.00006620      -0.47334216       0.64291451 </v>
   <v>       0.00004214       0.47858201       0.63960176 </v>
   <v>       0.00008338      -0.47832710      -0.63768330 </v>
   <v>      -0.00005326      -0.05949940      -0.33313738 </v>
   <v>       0.00002580      -0.06543043       0.33711460 </v>
   <v>       0.00006108       0.06542702      -0.33532246 </v>
   <v>      -0.00005001       0.06146556       0.33134309 </v>
   <v>       0.00000553       0.10692483      -0.53868074 </v>
   <v>      -0.00000470      -0.11735475      -0.54095254 </v>
   <v>      -0.00002962       0.11724395       0.54061320 </v>
   <v>       0.00002097      -0.10877710       0.53728617 </v>
  </varray>
  <varray name="stress" >
   <v>      18.72448032      -0.00038229      -0.00050530 </v>
   <v>      -0.00038198     -40.12085315      -0.17494364 </v>
   <v>      -0.00050537      -0.17495469       0.30669063 </v>
  </varray>
  <energy>
   <i name="e_fr_energy">    -92.64968292 </i>
   <i name="e_wo_entrp">    -92.64968292 </i>
   <i name="e_0_energy">     -0.00000000 </i>
  </energy>
  <time name="totalsc">    6.11    8.57</time>
 </calculation>
 <calculation>
  <scstep>
   <time name="dav">    0.13    0.23</time>
   <time name="total">    0.48    0.81</time>
   <energy>
    <i name="alphaZ">    441.37612112 </i>
    <i name="ewald">  -7342.30607839 </i>
    <i name="hartreedc">  -3744.79304097 </i>
    <i name="XCdc">    501.27936843 </i>
    <i name="pawpsdc">  12464.58670046 </i>
    <i name="pawaedc"> -12698.21474477 </i>
    <i name="eentropy">     -0.00000000 </i>
    <i name="bandstr">  -1272.61983074 </i>
    <i name="atom">  11559.05757976 </i>
    <i name="e_fr_energy">    -91.63392510 </i>
    <i name="e_wo_entrp">    -91.63392510 </i>
    <i name="e_0_energy">    -91.63392510 </i>
   </energy>
  </scstep>
  <scstep>
   <time name="diag">    0.03    0.03</time>
   <time name="diis">    0.11    0.11</time>
   <time name="orth">    0.01    0.01</time>
   <time name="total">    0.70    0.94</time>
   <energy>
    <i name="e_fr_energy">    -92.69469193 </i>
    <i name="e_wo_entrp">    -92.69469193 </i>
    <i name="e_0_energy">    -92.69469193 </i>
   </energy>
  </scstep>
  <scstep>
   <time name="diag">    0.02    0.03</time>
   <time name="diis">    0.05    0.10</time>
   <time name="orth">    0.00    0.01</time>
   <time name="total">    0.58    0.99</time>
   <energy>
    <i name="e_fr_energy">    -92.65172020 </i>
    <i name="e_wo_entrp">    -92.65172020 </i>
    <i name="e_0_energy">    -92.65172020 </i>
   </energy>
  </scstep>
  <scstep>
   <time name="diag">    0.02    0.03</time>
   <time name="diis">    0.06    0.12</time>
   <time name="orth">    0.00    0.01</time>
   <time name="total">    0.54    0.80</time>
   <energy>
    <i name="e_fr_energy">    -92.64672223 </i>
    <i name="e_wo_entrp">    -92.64672223 </i>
    <i name="e_0_energy">    -92.64672223 </i>
   </energy>
  </scstep>
  <scstep>
   <time name="diag">    0.02    0.03</time>
   <time name="diis">    0.05    0.10</time>
   <time name="orth">    0.00    0.01</time>
   <time name="total">    0.39    0.79</time>
   <energy>
    <i name="e_fr_energy">    -92.64502632 </i>
    <i name="e_wo_entrp">    -92.64502632 </i>
    <i name="e_0_energy">    -92.64502632 </i>
   </energy>
  </scstep>
  <scstep>
   <time name="diag">    0.02    0.03</time>
   <time name="diis">    0.06    0.11</time>
   <time name="orth">    0.00    0.01</time>
   <time name="total">    0.32    0.67</time>
   <energy>
    <i name="e_fr_energy">    -92.64440991 </i>
    <i name="e_wo_entrp">    -92.64440991 </i>
    <i name="e_0_energy">    -92.64440991 </i>
   </energy>
  </scstep>
  <scstep>
   <time name="diag">    0.03    0.03</time>
   <time name="diis">    0.09    0.09</time>
   <time name="orth">    0.01    0.01</time>
   <time name="total">    0.49    0.68</time>
   <energy>
    <i name="e_fr_energy">    -92.64433184 </i>
    <i name="e_wo_entrp">    -92.64433184 </i>
    <i name="e_0_energy">    -92.64433184 </i>
   </energy>
  </scstep>
  <scstep>
   <time name="diag">    0.02    0.03</time>
   <time name="diis">    0.04    0.08</time>
   <time name="orth">    0.00    0.01</time>
   <time name="total">    0.51    0.71</time>
   <energy>
    <i name="e_fr_energy">    -92.64429964 </i>
    <i name="e_wo_entrp">    -92.64429964 </i>
    <i name="e_0_energy">    -92.64429964 </i>
   </energy>
  </scstep>
  <scstep>
   <time name="diag">    0.02    0.03</time>
   <time name="diis">    0.04    0.07</time>
   <time name="orth">    0.00    0.01</time>
   <time name="total">    0.31    0.61</time>
   <energy>
    <i name="e_fr_energy">    -92.64428562 </i>
    <i name="e_wo_entrp">    -92.64428562 </i>
    <i name="e_0_energy">    -92.64428562 </i>
   </energy>
  </scstep>
  <scstep>
   <time name="diag">    0.02    0.03</time>
   <time name="diis">    0.04    0.06</time>
   <time name="orth">    0.01    0.01</time>
   <time name="total">    0.30    0.57</time>
   <energy>
    <i name="alphaZ">    441.37612112 </i>
    <i name="ewald">  -7342.30607839 </i>
    <i name="hartreedc">  -3747.45209888 </i>
    <i name="XCdc">    501.31011090 </i>
    <i name="pawpsdc">  12621.64805715 </i>
    <i name="pawaedc"> -12855.34922960 </i>
    <i name="eentropy">     -0.00000000 </i>
    <i name="bandstr">  -1270.92874616 </i>
    <i name="atom">  11559.05757976 </i>
    <i name="e_fr_energy">    -92.64428409 </i>
    <i name="e_wo_entrp">    -92.64428409 </i>
    <i name="e_0_energy">    -92.64428409 </i>
   </energy>
  </scstep>
  <structure>
   <crystal>
    <varray name="basis" >
     <v>       2.91633100       0.00000000       0.00000000 </v>
     <v>      -0.00000100       4.58096600       0.00014500 </v>
     <v>       0.00000200       0.00030000       9.43439300 </v>
    </varray>
    <i name="volume">    126.03984071 </i>
    <varray name="rec_basis" >
     <v>       0.34289661       0.00000007      -0.00000007 </v>
     <v>       0.00000000       0.21829457      -0.00000694 </v>
     <v>       0.00000000      -0.00000336       0.10599516 </v>
    </varray>
   </crystal>
   <varray name="positions" >
    <v>       0.25000027       0.05729125       0.85697018 </v>
    <v>       0.75000101       0.94272717       0.14299229 </v>
    <v>       0.74999987       0.55722274       0.64304804 </v>
    <v>       0.24999858       0.44275048       0.35691954 </v>
    <v>       0.25000104       0.71135607       0.56710184 </v>
    <v>       0.74999968       0.21149427       0.93288154 </v>
    <v>       0.24999955       0.78850089       0.06711612 </v>
    <v>       0.74999988       0.28864426       0.43292901 </v>
    <v>       0.25000050       0.18433947       0.21143135 </v>
    <v>       0.24999992       0.31589378       0.71157263 </v>
    <v>       0.75000007       0.68409682       0.28844889 </v>
    <v>       0.74999962       0.81568380       0.78858957 </v>
   </varray>
  </structure>
  <varray name="forces" >
   <v>      -0.00004629      -0.00315116      -0.71382781 </v>
   <v>      -0.00009189       0.00193786       0.71627862 </v>
   <v>       0.00005986       0.00451144       0.71292459 </v>
   <v>       0.00011120      -0.00377477      -0.70809130 </v>
   <v>      -0.00007328       0.17025635      -0.67183608 </v>
   <v>       0.00003606       0.16295795       0.67705969 </v>
   <v>       0.00008575      -0.16336700      -0.67534345 </v>
   <v>      -0.00007221      -0.16728605       0.66864717 </v>
   <v>       0.00000541      -0.13243412      -0.79836823 </v>
   <v>      -0.00000588       0.11959024      -0.80244893 </v>
   <v>      -0.00003376      -0.11816139       0.79994661 </v>
   <v>       0.00002502       0.12892065       0.79505911 </v>
  </varray>
  <varray name="stress" >
   <v>      26.08869845      -0.00049829      -0.00059447 </v>
   <v>      -0.00049748     -22.24036637      -0.22445152 </v>
   <v>      -0.00059389      -0.22446606      32.19585118 </v>
  </varray>
  <energy>
   <i name="e_fr_energy">    -92.64428409 </i>
   <i name="e_wo_entrp">    -92.64428409 </i>
   <i name="e_0_energy">     -0.00000000 </i>
  </energy>
  <time name="totalsc">    5.83    8.99</time>
 </calculation>
 <calculation>
  <scstep>
   <time name="dav">    0.11    0.21</time>
   <time name="total">    0.36    0.73</time>
   <energy>
    <i name="alphaZ">    441.37612112 </i>
    <i name="ewald">  -7351.64062326 </i>
    <i name="hartreedc">  -3739.76965628 </i>
    <i name="XCdc">    501.19269169 </i>
    <i name="pawpsdc">  12621.57843433 </i>
    <i name="pawaedc"> -12855.27921517 </i>
    <i name="eentropy">     -0.00000000 </i>
    <i name="bandstr">  -1268.84099119 </i>
    <i name="atom">  11559.05757976 </i>
    <i name="e_fr_energy">    -92.32565901 </i>
    <i name="e_wo_entrp">    -92.32565901 </i>
    <i name="e_0_energy">    -92.32565901 </i>
   </energy>
  </scstep>
  <scstep>
   <time name="diag">    0.02    0.03</time>
   <time name="diis">    0.05    0.11</time>
[...]
        <r>  0.0000  0.0033  0.0341  0.0000  0.0000  0.0000  0.0000  0.0000  0.0000 </r>
        <r>  0.0000  0.0033  0.0341  0.0000  0.0000  0.0000  0.0000  0.0000  0.0000 </r>
        <r>  0.0000  0.0033  0.0340  0.0000  0.0000  0.0000  0.0000  0.0000  0.0000 </r>
        <r>  0.0000  0.0033  0.0341  0.0000  0.0000  0.0000  0.0000  0.0000  0.0000 </r>
        <r>  0.0024  0.0097  0.0039  0.0000  0.0000  0.0000  0.0000  0.0000  0.0000 </r>
        <r>  0.0024  0.0097  0.0039  0.0000  0.0000  0.0000  0.0000  0.0000  0.0000 </r>
        <r>  0.0024  0.0097  0.0039  0.0000  0.0000  0.0000  0.0000  0.0000  0.0000 </r>
        <r>  0.0024  0.0097  0.0039  0.0000  0.0000  0.0000  0.0000  0.0000  0.0000 </r>
       </set>
       <set comment="band 57">
        <r>  0.0004  0.0002  0.0009  0.0000  0.0000  0.0770  0.0007  0.0000  0.0941 </r>
        <r>  0.0004  0.0002  0.0009  0.0000  0.0000  0.0769  0.0007  0.0000  0.0941 </r>
        <r>  0.0004  0.0002  0.0009  0.0000  0.0000  0.0770  0.0007  0.0000  0.0941 </r>
        <r>  0.0004  0.0002  0.0009  0.0000  0.0000  0.0770  0.0007  0.0000  0.0941 </r>
        <r>  0.0022  0.0018  0.0172  0.0000  0.0000  0.0000  0.0000  0.0000  0.0000 </r>
        <r>  0.0022  0.0018  0.0172  0.0000  0.0000  0.0000  0.0000  0.0000  0.0000 </r>
        <r>  0.0022  0.0018  0.0172  0.0000  0.0000  0.0000  0.0000  0.0000  0.0000 </r>
        <r>  0.0022  0.0018  0.0172  0.0000  0.0000  0.0000  0.0000  0.0000  0.0000 </r>
        <r>  0.0021  0.0003  0.0319  0.0000  0.0000  0.0000  0.0000  0.0000  0.0000 </r>
        <r>  0.0021  0.0003  0.0319  0.0000  0.0000  0.0000  0.0000  0.0000  0.0000 </r>
        <r>  0.0021  0.0003  0.0319  0.0000  0.0000  0.0000  0.0000  0.0000  0.0000 </r>
        <r>  0.0021  0.0003  0.0319  0.0000  0.0000  0.0000  0.0000  0.0000  0.0000 </r>
       </set>
       <set comment="band 58">
        <r>  0.0003  0.0011  0.0011  0.0000  0.0000  0.0692  0.0128  0.0000  0.0866 </r>
        <r>  0.0003  0.0011  0.0011  0.0000  0.0000  0.0692  0.0129  0.0000  0.0866 </r>
        <r>  0.0003  0.0011  0.0011  0.0000  0.0000  0.0692  0.0128  0.0000  0.0867 </r>
        <r>  0.0003  0.0011  0.0011  0.0000  0.0000  0.0692  0.0127  0.0000  0.0867 </r>
        <r>  0.0025  0.0167  0.0021  0.0000  0.0000  0.0000  0.0000  0.0000  0.0000 </r>
        <r>  0.0025  0.0167  0.0021  0.0000  0.0000  0.0000  0.0000  0.0000  0.0000 </r>
        <r>  0.0025  0.0167  0.0021  0.0000  0.0000  0.0000  0.0000  0.0000  0.0000 </r>
        <r>  0.0025  0.0167  0.0021  0.0000  0.0000  0.0000  0.0000  0.0000  0.0000 </r>
        <r>  0.0004  0.0015  0.0404  0.0000  0.0000  0.0000  0.0000  0.0000  0.0000 </r>
        <r>  0.0004  0.0015  0.0404  0.0000  0.0000  0.0000  0.0000  0.0000  0.0000 </r>
        <r>  0.0004  0.0015  0.0404  0.0000  0.0000  0.0000  0.0000  0.0000  0.0000 </r>
        <r>  0.0004  0.0015  0.0404  0.0000  0.0000  0.0000  0.0000  0.0000  0.0000 </r>
       </set>
       <set comment="band 59">
        <r>  0.0064  0.0039  0.0047  0.0000  0.0000  0.0264  0.0887  0.0000  0.0498 </r>
        <r>  0.0063  0.0039  0.0047  0.0000  0.0000  0.0264  0.0887  0.0000  0.0499 </r>
        <r>  0.0063  0.0039  0.0047  0.0000  0.0000  0.0263  0.0887  0.0000  0.0497 </r>
        <r>  0.0063  0.0039  0.0047  0.0000  0.0000  0.0263  0.0887  0.0000  0.0497 </r>
        <r>  0.0008  0.0021  0.0045  0.0000  0.0000  0.0000  0.0000  0.0000  0.0000 </r>
        <r>  0.0008  0.0021  0.0045  0.0000  0.0000  0.0000  0.0000  0.0000  0.0000 </r>
        <r>  0.0008  0.0021  0.0045  0.0000  0.0000  0.0000  0.0000  0.0000  0.0000 </r>
        <r>  0.0008  0.0021  0.0045  0.0000  0.0000  0.0000  0.0000  0.0000  0.0000 </r>
        <r>  0.0009  0.0393  0.0067  0.0000  0.0000  0.0000  0.0000  0.0000  0.0000 </r>
        <r>  0.0009  0.0393  0.0067  0.0000  0.0000  0.0000  0.0000  0.0000  0.0000 </r>
        <r>  0.0009  0.0393  0.0067  0.0000  0.0000  0.0000  0.0000  0.0000  0.0000 </r>
        <r>  0.0009  0.0393  0.0067  0.0000  0.0000  0.0000  0.0000  0.0000  0.0000 </r>
       </set>
       <set comment="band 60">
        <r>  0.0064  0.0019  0.0026  0.0000  0.0000  0.0278  0.0767  0.0000  0.0282 </r>
        <r>  0.0064  0.0019  0.0026  0.0000  0.0000  0.0279  0.0767  0.0000  0.0282 </r>
        <r>  0.0064  0.0019  0.0026  0.0000  0.0000  0.0278  0.0766  0.0000  0.0281 </r>
        <r>  0.0064  0.0019  0.0026  0.0000  0.0000  0.0277  0.0766  0.0000  0.0281 </r>
        <r>  0.0011  0.0063  0.0327  0.0000  0.0000  0.0000  0.0000  0.0000  0.0000 </r>
        <r>  0.0011  0.0063  0.0328  0.0000  0.0000  0.0000  0.0000  0.0000  0.0000 </r>
        <r>  0.0011  0.0063  0.0328  0.0000  0.0000  0.0000  0.0000  0.0000  0.0000 </r>
        <r>  0.0011  0.0063  0.0327  0.0000  0.0000  0.0000  0.0000  0.0000  0.0000 </r>
        <r>  0.0018  0.0292  0.0125  0.0000  0.0000  0.0000  0.0000  0.0000  0.0000 </r>
        <r>  0.0018  0.0292  0.0125  0.0000  0.0000  0.0000  0.0000  0.0000  0.0000 </r>
        <r>  0.0018  0.0292  0.0126  0.0000  0.0000  0.0000  0.0000  0.0000  0.0000 </r>
        <r>  0.0018  0.0292  0.0125  0.0000  0.0000  0.0000  0.0000  0.0000  0.0000 </r>
       </set>
       <set comment="band 61">
        <r>  0.0000  0.0000  0.0000  0.0036  0.1134  0.0000  0.0000  0.0412  0.0000 </r>
        <r>  0.0000  0.0000  0.0000  0.0036  0.1139  0.0000  0.0000  0.0413  0.0000 </r>
        <r>  0.0000  0.0000  0.0000  0.0036  0.1137  0.0000  0.0000  0.0414  0.0000 </r>
        <r>  0.0000  0.0000  0.0000  0.0036  0.1144  0.0000  0.0000  0.0417  0.0000 </r>
        <r>  0.0000  0.0000  0.0000  0.0350  0.0000  0.0000  0.0000  0.0000  0.0000 </r>
        <r>  0.0000  0.0000  0.0000  0.0348  0.0000  0.0000  0.0000  0.0000  0.0000 </r>
        <r>  0.0000  0.0000  0.0000  0.0350  0.0000  0.0000  0.0000  0.0000  0.0000 </r>
        <r>  0.0000  0.0000  0.0000  0.0352  0.0000  0.0000  0.0000  0.0000  0.0000 </r>
        <r>  0.0000  0.0000  0.0000  0.0391  0.0000  0.0000  0.0000  0.0000  0.0000 </r>
        <r>  0.0000  0.0000  0.0000  0.0391  0.0000  0.0000  0.0000  0.0000  0.0000 </r>
        <r>  0.0000  0.0000  0.0000  0.0393  0.0000  0.0000  0.0000  0.0000  0.0000 </r>
        <r>  0.0000  0.0000  0.0000  0.0389  0.0000  0.0000  0.0000  0.0000  0.0000 </r>
       </set>
       <set comment="band 62">
        <r>  0.0000  0.0000  0.0000  0.0033  0.1251  0.0000  0.0000  0.0313  0.0000 </r>
        <r>  0.0000  0.0000  0.0000  0.0033  0.1244  0.0000  0.0000  0.0310  0.0000 </r>
        <r>  0.0000  0.0000  0.0000  0.0033  0.1257  0.0000  0.0000  0.0317  0.0000 </r>
        <r>  0.0000  0.0000  0.0000  0.0033  0.1252  0.0000  0.0000  0.0316  0.0000 </r>
        <r>  0.0000  0.0000  0.0000  0.0404  0.0000  0.0000  0.0000  0.0000  0.0000 </r>
        <r>  0.0000  0.0000  0.0000  0.0400  0.0000  0.0000  0.0000  0.0000  0.0000 </r>
        <r>  0.0000  0.0000  0.0000  0.0398  0.0000  0.0000  0.0000  0.0000  0.0000 </r>
        <r>  0.0000  0.0000  0.0000  0.0402  0.0000  0.0000  0.0000  0.0000  0.0000 </r>
        <r>  0.0000  0.0000  0.0000  0.0355  0.0000  0.0000  0.0000  0.0000  0.0000 </r>
        <r>  0.0000  0.0000  0.0000  0.0359  0.0000  0.0000  0.0000  0.0000  0.0000 </r>
        <r>  0.0000  0.0000  0.0000  0.0358  0.0000  0.0000  0.0000  0.0000  0.0000 </r>
        <r>  0.0000  0.0000  0.0000  0.0357  0.0000  0.0000  0.0000  0.0000  0.0000 </r>
       </set>
       <set comment="band 63">
        <r>  0.0000  0.0000  0.0000  0.0012  0.0596  0.0000  0.0000  0.0955  0.0000 </r>
        <r>  0.0000  0.0000  0.0000  0.0012  0.0609  0.0000  0.0000  0.0978  0.0000 </r>
        <r>  0.0000  0.0000  0.0000  0.0012  0.0590  0.0000  0.0000  0.0951  0.0000 </r>
        <r>  0.0000  0.0000  0.0000  0.0012  0.0601  0.0000  0.0000  0.0972  0.0000 </r>
        <r>  0.0000  0.0000  0.0000  0.0502  0.0000  0.0000  0.0000  0.0000  0.0000 </r>
        <r>  0.0000  0.0000  0.0000  0.0505  0.0000  0.0000  0.0000  0.0000  0.0000 </r>
        <r>  0.0000  0.0000  0.0000  0.0516  0.0000  0.0000  0.0000  0.0000  0.0000 </r>
        <r>  0.0000  0.0000  0.0000  0.0512  0.0000  0.0000  0.0000  0.0000  0.0000 </r>
        <r>  0.0000  0.0000  0.0000  0.0280  0.0000  0.0000  0.0000  0.0000  0.0000 </r>
        <r>  0.0000  0.0000  0.0000  0.0271  0.0000  0.0000  0.0000  0.0000  0.0000 </r>
        <r>  0.0000  0.0000  0.0000  0.0277  0.0000  0.0000  0.0000  0.0000  0.0000 </r>
        <r>  0.0000  0.0000  0.0000  0.0273  0.0000  0.0000  0.0000  0.0000  0.0000 </r>
       </set>
       <set comment="band 64">
        <r>  0.0000  0.0000  0.0000  0.0012  0.0517  0.0000  0.0000  0.1067  0.0000 </r>
        <r>  0.0000  0.0000  0.0000  0.0012  0.0506  0.0000  0.0000  0.1047  0.0000 </r>
        <r>  0.0000  0.0000  0.0000  0.0012  0.0514  0.0000  0.0000  0.1064  0.0000 </r>
        <r>  0.0000  0.0000  0.0000  0.0011  0.0501  0.0000  0.0000  0.1042  0.0000 </r>
        <r>  0.0000  0.0000  0.0000  0.0477  0.0000  0.0000  0.0000  0.0000  0.0000 </r>
        <r>  0.0000  0.0000  0.0000  0.0479  0.0000  0.0000  0.0000  0.0000  0.0000 </r>
        <r>  0.0000  0.0000  0.0000  0.0469  0.0000  0.0000  0.0000  0.0000  0.0000 </r>
        <r>  0.0000  0.0000  0.0000  0.0466  0.0000  0.0000  0.0000  0.0000  0.0000 </r>
        <r>  0.0000  0.0000  0.0000  0.0313  0.0000  0.0000  0.0000  0.0000  0.0000 </r>
        <r>  0.0000  0.0000  0.0000  0.0318  0.0000  0.0000  0.0000  0.0000  0.0000 </r>
        <r>  0.0000  0.0000  0.0000  0.0311  0.0000  0.0000  0.0000  0.0000  0.0000 </r>
        <r>  0.0000  0.0000  0.0000  0.0319  0.0000  0.0000  0.0000  0.0000  0.0000 </r>
       </set>
       <set comment="band 65">
        <r>  0.0236  0.0006  0.0000  0.0000  0.0000  0.0007  0.0068  0.0000  0.0128 </r>
        <r>  0.0236  0.0006  0.0000  0.0000  0.0000  0.0007  0.0068  0.0000  0.0128 </r>
        <r>  0.0236  0.0006  0.0000  0.0000  0.0000  0.0007  0.0068  0.0000  0.0128 </r>
        <r>  0.0236  0.0006  0.0000  0.0000  0.0000  0.0007  0.0068  0.0000  0.0128 </r>
        <r>  0.0258  0.0002  0.0000  0.0000  0.0000  0.0000  0.0000  0.0000  0.0000 </r>
        <r>  0.0258  0.0002  0.0000  0.0000  0.0000  0.0000  0.0000  0.0000  0.0000 </r>
        <r>  0.0258  0.0002  0.0000  0.0000  0.0000  0.0000  0.0000  0.0000  0.0000 </r>
        <r>  0.0258  0.0002  0.0000  0.0000  0.0000  0.0000  0.0000  0.0000  0.0000 </r>
        <r>  0.0271  0.0007  0.0005  0.0000  0.0000  0.0000  0.0000  0.0000  0.0000 </r>
        <r>  0.0270  0.0007  0.0005  0.0000  0.0000  0.0000  0.0000  0.0000  0.0000 </r>
        <r>  0.0270  0.0007  0.0005  0.0000  0.0000  0.0000  0.0000  0.0000  0.0000 </r>
        <r>  0.0270  0.0007  0.0005  0.0000  0.0000  0.0000  0.0000  0.0000  0.0000 </r>
       </set>
       <set comment="band 66">
        <r>  0.0165  0.0003  0.0147  0.0000  0.0000  0.0007  0.0019  0.0000  0.0037 </r>
        <r>  0.0165  0.0003  0.0147  0.0000  0.0000  0.0007  0.0019  0.0000  0.0037 </r>
        <r>  0.0165  0.0003  0.0147  0.0000  0.0000  0.0007  0.0019  0.0000  0.0037 </r>
        <r>  0.0165  0.0003  0.0147  0.0000  0.0000  0.0007  0.0019  0.0000  0.0037 </r>
        <r>  0.0322  0.0002  0.0095  0.0000  0.0000  0.0000  0.0000  0.0000  0.0000 </r>
        <r>  0.0322  0.0002  0.0095  0.0000  0.0000  0.0000  0.0000  0.0000  0.0000 </r>
        <r>  0.0322  0.0002  0.0095  0.0000  0.0000  0.0000  0.0000  0.0000  0.0000 </r>
        <r>  0.0322  0.0002  0.0095  0.0000  0.0000  0.0000  0.0000  0.0000  0.0000 </r>
        <r>  0.0030  0.0010  0.0328  0.0000  0.0000  0.0000  0.0000  0.0000  0.0000 </r>
        <r>  0.0030  0.0010  0.0328  0.0000  0.0000  0.0000  0.0000  0.0000  0.0000 </r>
        <r>  0.0030  0.0010  0.0328  0.0000  0.0000  0.0000  0.0000  0.0000  0.0000 </r>
        <r>  0.0030  0.0010  0.0328  0.0000  0.0000  0.0000  0.0000  0.0000  0.0000 </r>
       </set>
       <set comment="band 67">
        <r>  0.0144  0.0044  0.0057  0.0000  0.0000  0.0017  0.0010  0.0000  0.0044 </r>
        <r>  0.0144  0.0044  0.0057  0.0000  0.0000  0.0017  0.0010  0.0000  0.0044 </r>
        <r>  0.0144  0.0044  0.0057  0.0000  0.0000  0.0017  0.0010  0.0000  0.0044 </r>
        <r>  0.0144  0.0044  0.0057  0.0000  0.0000  0.0017  0.0010  0.0000  0.0044 </r>
        <r>  0.0014  0.0006  0.0344  0.0000  0.0000  0.0000  0.0000  0.0000  0.0000 </r>
        <r>  0.0014  0.0006  0.0344  0.0000  0.0000  0.0000  0.0000  0.0000  0.0000 </r>
        <r>  0.0014  0.0006  0.0344  0.0000  0.0000  0.0000  0.0000  0.0000  0.0000 </r>
        <r>  0.0014  0.0006  0.0344  0.0000  0.0000  0.0000  0.0000  0.0000  0.0000 </r>
        <r>  0.0325  0.0003  0.0014  0.0000  0.0000  0.0000  0.0000  0.0000  0.0000 </r>
        <r>  0.0325  0.0003  0.0014  0.0000  0.0000  0.0000  0.0000  0.0000  0.0000 </r>
        <r>  0.0325  0.0003  0.0014  0.0000  0.0000  0.0000  0.0000  0.0000  0.0000 </r>
        <r>  0.0325  0.0003  0.0014  0.0000  0.0000  0.0000  0.0000  0.0000  0.0000 </r>
       </set>
       <set comment="band 68">
        <r>  0.0006  0.0466  0.0006  0.0000  0.0000  0.0003  0.0006  0.0000  0.0079 </r>
        <r>  0.0006  0.0467  0.0006  0.0000  0.0000  0.0003  0.0006  0.0000  0.0079 </r>
        <r>  0.0006  0.0467  0.0006  0.0000  0.0000  0.0003  0.0006  0.0000  0.0079 </r>
        <r>  0.0006  0.0467  0.0006  0.0000  0.0000  0.0003  0.0006  0.0000  0.0079 </r>
        <r>  0.0065  0.0058  0.0005  0.0000  0.0000  0.0000  0.0000  0.0000  0.0000 </r>
        <r>  0.0065  0.0058  0.0005  0.0000  0.0000  0.0000  0.0000  0.0000  0.0000 </r>
        <r>  0.0065  0.0058  0.0005  0.0000  0.0000  0.0000  0.0000  0.0000  0.0000 </r>
        <r>  0.0065  0.0058  0.0005  0.0000  0.0000  0.0000  0.0000  0.0000  0.0000 </r>
        <r>  0.0159  0.0011  0.0008  0.0000  0.0000  0.0000  0.0000  0.0000  0.0000 </r>
        <r>  0.0159  0.0011  0.0008  0.0000  0.0000  0.0000  0.0000  0.0000  0.0000 </r>
        <r>  0.0159  0.0011  0.0008  0.0000  0.0000  0.0000  0.0000  0.0000  0.0000 </r>
        <r>  0.0159  0.0011  0.0008  0.0000  0.0000  0.0000  0.0000  0.0000  0.0000 </r>
       </set>
       <set comment="band 69">
        <r>  0.0000  0.0091  0.0420  0.0000  0.0000  0.0044  0.0021  0.0000  0.0035 </r>
        <r>  0.0000  0.0091  0.0420  0.0000  0.0000  0.0044  0.0021  0.0000  0.0035 </r>
        <r>  0.0000  0.0091  0.0421  0.0000  0.0000  0.0044  0.0021  0.0000  0.0035 </r>
        <r>  0.0000  0.0091  0.0421  0.0000  0.0000  0.0044  0.0021  0.0000  0.0035 </r>
        <r>  0.0096  0.0019  0.0158  0.0000  0.0000  0.0000  0.0000  0.0000  0.0000 </r>
        <r>  0.0096  0.0018  0.0158  0.0000  0.0000  0.0000  0.0000  0.0000  0.0000 </r>
        <r>  0.0096  0.0018  0.0158  0.0000  0.0000  0.0000  0.0000  0.0000  0.0000 </r>
        <r>  0.0096  0.0019  0.0158  0.0000  0.0000  0.0000  0.0000  0.0000  0.0000 </r>
        <r>  0.0094  0.0006  0.0128  0.0000  0.0000  0.0000  0.0000  0.0000  0.0000 </r>
        <r>  0.0094  0.0006  0.0128  0.0000  0.0000  0.0000  0.0000  0.0000  0.0000 </r>
        <r>  0.0094  0.0006  0.0128  0.0000  0.0000  0.0000  0.0000  0.0000  0.0000 </r>
        <r>  0.0094  0.0006  0.0128  0.0000  0.0000  0.0000  0.0000  0.0000  0.0000 </r>
       </set>
       <set comment="band 70">
        <r>  0.0084  0.0013  0.0103  0.0000  0.0000  0.0005  0.0007  0.0000  0.0116 </r>
        <r>  0.0083  0.0015  0.0104  0.0000  0.0000  0.0005  0.0008  0.0000  0.0114 </r>
        <r>  0.0085  0.0013  0.0103  0.0000  0.0000  0.0005  0.0007  0.0000  0.0116 </r>
        <r>  0.0083  0.0015  0.0104  0.0000  0.0000  0.0005  0.0008  0.0000  0.0114 </r>
        <r>  0.0042  0.0024  0.0134  0.0000  0.0000  0.0000  0.0000  0.0000  0.0000 </r>
        <r>  0.0042  0.0024  0.0134  0.0000  0.0000  0.0000  0.0000  0.0000  0.0000 </r>
        <r>  0.0042  0.0026  0.0136  0.0000  0.0000  0.0000  0.0000  0.0000  0.0000 </r>
        <r>  0.0042  0.0026  0.0136  0.0000  0.0000  0.0000  0.0000  0.0000  0.0000 </r>
        <r>  0.0001  0.0150  0.0216  0.0000  0.0000  0.0000  0.0000  0.0000  0.0000 </r>
        <r>  0.0002  0.0149  0.0215  0.0000  0.0000  0.0000  0.0000  0.0000  0.0000 </r>
        <r>  0.0001  0.0150  0.0215  0.0000  0.0000  0.0000  0.0000  0.0000  0.0000 </r>
        <r>  0.0002  0.0149  0.0215  0.0000  0.0000  0.0000  0.0000  0.0000  0.0000 </r>
       </set>
       <set comment="band 71">
        <r>  0.0051  0.0453  0.0004  0.0000  0.0000  0.0005  0.0048  0.0000  0.0072 </r>
        <r>  0.0052  0.0451  0.0003  0.0000  0.0000  0.0005  0.0048  0.0000  0.0074 </r>
        <r>  0.0051  0.0454  0.0004  0.0000  0.0000  0.0005  0.0048  0.0000  0.0072 </r>
        <r>  0.0052  0.0452  0.0004  0.0000  0.0000  0.0005  0.0048  0.0000  0.0074 </r>
        <r>  0.0009  0.0271  0.0114  0.0000  0.0000  0.0000  0.0000  0.0000  0.0000 </r>
        <r>  0.0009  0.0270  0.0114  0.0000  0.0000  0.0000  0.0000  0.0000  0.0000 </r>
        <r>  0.0009  0.0269  0.0112  0.0000  0.0000  0.0000  0.0000  0.0000  0.0000 </r>
        <r>  0.0009  0.0269  0.0111  0.0000  0.0000  0.0000  0.0000  0.0000  0.0000 </r>
        <r>  0.0116  0.0011  0.0009  0.0000  0.0000  0.0000  0.0000  0.0000  0.0000 </r>
        <r>  0.0116  0.0012  0.0010  0.0000  0.0000  0.0000  0.0000  0.0000  0.0000 </r>
        <r>  0.0116  0.0011  0.0009  0.0000  0.0000  0.0000  0.0000  0.0000  0.0000 </r>
        <r>  0.0116  0.0012  0.0010  0.0000  0.0000  0.0000  0.0000  0.0000  0.0000 </r>
       </set>
       <set comment="band 72">
        <r>  0.0316  0.0051  0.0015  0.0000  0.0000  0.0063  0.0038  0.0000  0.0001 </r>
        <r>  0.0316  0.0051  0.0015  0.0000  0.0000  0.0063  0.0038  0.0000  0.0001 </r>
        <r>  0.0316  0.0051  0.0015  0.0000  0.0000  0.0063  0.0038  0.0000  0.0001 </r>
        <r>  0.0316  0.0051  0.0015  0.0000  0.0000  0.0063  0.0038  0.0000  0.0001 </r>
        <r>  0.0103  0.0001  0.0001  0.0000  0.0000  0.0000  0.0000  0.0000  0.0000 </r>
        <r>  0.0103  0.0001  0.0001  0.0000  0.0000  0.0000  0.0000  0.0000  0.0000 </r>
        <r>  0.0103  0.0001  0.0001  0.0000  0.0000  0.0000  0.0000  0.0000  0.0000 </r>
        <r>  0.0103  0.0001  0.0001  0.0000  0.0000  0.0000  0.0000  0.0000  0.0000 </r>
        <r>  0.0008  0.0029  0.0185  0.0000  0.0000  0.0000  0.0000  0.0000  0.0000 </r>
        <r>  0.0008  0.0029  0.0186  0.0000  0.0000  0.0000  0.0000  0.0000  0.0000 </r>
        <r>  0.0008  0.0029  0.0186  0.0000  0.0000  0.0000  0.0000  0.0000  0.0000 </r>
        <r>  0.0008  0.0029  0.0185  0.0000  0.0000  0.0000  0.0000  0.0000  0.0000 </r>
       </set>
      </set>
     </set>
    </set>
   </array>
  </projected>
 </calculation>
 <structure name="finalpos" >
  <crystal>
   <varray name="basis" >
    <v>       2.91633100       0.00000000       0.00000000 </v>
    <v>      -0.00000100       4.58096600       0.00014500 </v>
    <v>       0.00000200       0.00030000       9.43439300 </v>
   </varray>
   <i name="volume">    126.03984071 </i>
   <varray name="rec_basis" >
    <v>       0.34289661       0.00000007      -0.00000007 </v>
    <v>       0.00000000       0.21829457      -0.00000694 </v>
    <v>       0.00000000      -0.00000336       0.10599516 </v>
   </varray>
  </crystal>
  <varray name="positions" >
   <v>       0.25000072       0.10464202       0.85507427 </v>
   <v>       0.75000511       0.89535206       0.14493155 </v>
   <v>       0.74999617       0.60467421       0.64491494 </v>
   <v>       0.24999705       0.39531998       0.35508611 </v>
   <v>       0.24999822       0.74395037       0.56132422 </v>
   <v>       0.74999931       0.24390294       0.93865275 </v>
   <v>       0.25000392       0.75609963       0.06134651 </v>
   <v>       0.74999956       0.25604945       0.43867779 </v>
   <v>       0.25000232       0.14120830       0.20623544 </v>
   <v>       0.24999841       0.35880311       0.70622312 </v>
   <v>       0.75000023       0.64120471       0.29377330 </v>
   <v>       0.74999899       0.85879423       0.79376101 </v>
  </varray>
 </structure>
</modeling>
