unknown system                          
           1
     2.916331    0.000000    0.000000
    -0.000001    4.580966    0.000145
     0.000002    0.000300    9.434393
   Mn   O 
   4   8
Direct configuration=     1
   0.25000000  0.02126500  0.86501400
   0.74999900  0.97874100  0.13499200
   0.75000000  0.52131000  0.63496800
   0.25000100  0.47868900  0.36502400
   0.25000000  0.71244700  0.53693000
   0.75000000  0.21232300  0.96305200
   0.25000000  0.78767800  0.03695300
   0.75000000  0.28755100  0.46306600
   0.25000000  0.19132200  0.21631000
   0.25000000  0.30854000  0.71624800
   0.75000000  0.69145800  0.28375200
   0.75000000  0.80867700  0.78369200
Direct configuration=     2
   0.24999990  0.02068390  0.86793795
   0.74999954  0.97931330  0.13206171
   0.75000009  0.52072870  0.63203724
   0.25000050  0.47927381  0.36795935
   0.25000007  0.69642161  0.54500392
   0.74999998  0.19636321  0.95498818
   0.24999979  0.80363889  0.04501851
   0.75000014  0.30357681  0.45499258
   0.24999973  0.17628566  0.20976276
   0.24999998  0.32364854  0.70970443
   0.75000029  0.67635040  0.29029437
   0.74999999  0.82371616  0.79023999
Direct configuration=     3
   0.24999990  0.02067465  0.86798450
   0.74999955  0.97932241  0.13201506
   0.75000009  0.52071944  0.63199058
   0.25000049  0.47928312  0.36800608
   0.25000007  0.69616647  0.54513246
   0.74999998  0.19610912  0.95485980
   0.24999979  0.80389300  0.04514692
   0.75000014  0.30383196  0.45486405
   0.24999973  0.17604627  0.20965853
   0.24999998  0.32388908  0.70960025
   0.75000029  0.67610987  0.29039853
   0.74999999  0.82395559  0.79034424
Direct configuration=     4
   0.24999996  0.02102187  0.86589769
   0.74999972  0.97898270  0.13410279
   0.75000003  0.52104888  0.63408453
   0.25000028  0.47894640  0.36590920
   0.25000018  0.69770874  0.54665515
   0.74999994  0.19766491  0.95333704
   0.24999970  0.80233319  0.04666672
   0.75000018  0.30229217  0.45334459
   0.24999974  0.17484742  0.20919727
   0.24999999  0.32511926  0.70914842
   0.75000034  0.67488059  0.29085141
   0.74999993  0.82515486  0.79080619
Direct configuration=     5
   0.24999995  0.02098108  0.86614284
   0.74999970  0.97902261  0.13385753
   0.75000004  0.52101018  0.63383854
   0.25000031  0.47898596  0.36615553
   0.25000016  0.69752756  0.54647627
   0.74999995  0.19748214  0.95351593
   0.24999971  0.80251643  0.04648818
   0.75000017  0.30247306  0.45352309
   0.24999973  0.17498826  0.20925145
   0.24999999  0.32497474  0.70920150
   0.75000033  0.67502500  0.29079821
   0.74999994  0.82501397  0.79075192
Direct configuration=     6
   0.24999998  0.02391979  0.86540047
   0.74999980  0.97608509  0.13459683
   0.75000003  0.52394099  0.63458390
   0.25000017  0.47605330  0.36540803
   0.25000023  0.69864675  0.54814557
   0.74999993  0.19861619  0.95184592
   0.24999970  0.80138211  0.04815767
   0.75000015  0.30135385  0.45185634
   0.24999980  0.17574508  0.20942788
   0.24999999  0.32423979  0.70939340
   0.75000031  0.67575922  0.29060807
   0.74999992  0.82425885  0.79057691
Direct configuration=     7
   0.25000006  0.03273591  0.86317334
   0.75000012  0.96727255  0.13681476
   0.74999999  0.53273341  0.63681997
   0.24999975  0.46725531  0.36316553
   0.25000045  0.70200432  0.55315347
   0.74999986  0.20201834  0.94683588
   0.24999966  0.79797913  0.05316615
   0.75000008  0.29799621  0.44685609
   0.24999998  0.17801556  0.20995716
   0.24999997  0.32203493  0.70996911
   0.75000025  0.67796186  0.29003765
   0.74999984  0.82199348  0.79005189
Direct configuration=     8
   0.25000021  0.05036816  0.85871909
   0.75000076  0.94964745  0.14125061
   0.74999990  0.55031826  0.64129211
   0.24999891  0.44965933  0.35868052
   0.25000088  0.70871945  0.56316926
   0.74999973  0.20882265  0.93681580
   0.24999958  0.79117317  0.06318309
   0.74999993  0.29128093  0.43685559
   0.25000035  0.18255652  0.21101572
   0.24999994  0.31762520  0.71112054
   0.75000012  0.68236714  0.28889682
   0.74999968  0.81746274  0.78900185
Direct configuration=     9
   0.25000027  0.05729125  0.85697018
   0.75000101  0.94272717  0.14299229
   0.74999987  0.55722274  0.64304804
   0.24999858  0.44275048  0.35691954
   0.25000104  0.71135607  0.56710184
   0.74999968  0.21149427  0.93288154
   0.24999955  0.78850089  0.06711612
   0.74999988  0.28864426  0.43292901
   0.25000050  0.18433947  0.21143135
   0.24999992  0.31589378  0.71157263
   0.75000007  0.68409682  0.28844889
   0.74999962  0.81568380  0.78858957
Direct configuration=    10
   0.25000023  0.05328308  0.85798272
   0.75000086  0.94673372  0.14198393
   0.74999989  0.55322534  0.64203143
   0.24999877  0.44675041  0.35793907
   0.25000095  0.70982958  0.56482505
   0.74999971  0.20994752  0.93515931
   0.24999957  0.79004802  0.06483906
   0.74999991  0.29017078  0.43520233
   0.25000041  0.18330721  0.21119072
   0.24999993  0.31689620  0.71131089
   0.75000010  0.68309541  0.28870823
   0.74999966  0.81671373  0.78882826
Direct configuration=    11
   0.25000021  0.05477804  0.85745104
   0.75000084  0.94523859  0.14251448
   0.74999993  0.55472035  0.64256375
   0.24999880  0.44525487  0.35740691
   0.25000092  0.71035076  0.56544224
   0.74999973  0.21047139  0.93454304
   0.24999963  0.78952394  0.06545558
   0.74999984  0.28965111  0.43458554
   0.25000045  0.18365541  0.21108509
   0.24999992  0.31655107  0.71121147
   0.75000006  0.68344064  0.28880802
   0.74999967  0.81636481  0.78893383
Direct configuration=    12
   0.25000014  0.05860537  0.85608986
   0.75000078  0.94141085  0.14387277
   0.75000003  0.55854781  0.64392656
   0.24999886  0.44142607  0.35604449
   0.25000086  0.71168504  0.56702236
   0.74999978  0.21181259  0.93296529
   0.24999978  0.78818222  0.06703396
   0.74999968  0.28832068  0.43300646
   0.25000053  0.18454684  0.21081468
   0.24999990  0.31566750  0.71095695
   0.74999996  0.68432449  0.28906349
   0.74999969  0.81547154  0.78920412
Direct configuration=    13
   0.25000010  0.05880083  0.85580682
   0.75000069  0.94121374  0.14415700
   0.75000009  0.55874968  0.64421005
   0.24999897  0.44122561  0.35576296
   0.25000078  0.71191042  0.56687324
   0.74999981  0.21203170  0.93311634
   0.24999987  0.78796235  0.06688332
   0.74999961  0.28809778  0.43315437
   0.25000053  0.18444371  0.21045977
   0.24999990  0.31576202  0.71060068
   0.74999992  0.68423124  0.28941872
   0.74999972  0.81557192  0.78955773
Direct configuration=    14
   0.24999996  0.05938722  0.85495770
   0.75000043  0.94062242  0.14500967
   0.75000026  0.55935528  0.64506052
   0.24999930  0.44062423  0.35491836
   0.25000055  0.71258659  0.56642589
   0.74999992  0.21268903  0.93356949
   0.25000014  0.78730275  0.06643138
   0.74999939  0.28742908  0.43359810
   0.25000054  0.18413429  0.20939503
   0.24999990  0.31604557  0.70953187
   0.74999981  0.68395149  0.29048440
   0.74999980  0.81587305  0.79061858
Direct configuration=    15
   0.24999969  0.06056000  0.85325947
   0.74999990  0.93943976  0.14671501
   0.75000060  0.56056649  0.64676146
   0.24999996  0.43942147  0.35322918
   0.25000010  0.71393892  0.56553118
   0.75000013  0.21400368  0.93447579
   0.25000066  0.78598355  0.06552751
   0.74999897  0.28609167  0.43448555
   0.25000055  0.18351547  0.20726556
   0.24999989  0.31661267  0.70739426
   0.74999959  0.68339200  0.29261576
   0.74999996  0.81647531  0.79274028
Direct configuration=    16
   0.24999975  0.06143492  0.85356985
   0.75000001  0.93856140  0.14641073
   0.75000048  0.56145612  0.64645771
   0.24999987  0.43853910  0.35353542
   0.25000011  0.71401312  0.56544592
   0.75000009  0.21405591  0.93456446
   0.25000058  0.78592765  0.06543759
   0.74999911  0.28601858  0.43456900
   0.25000043  0.18317829  0.20635422
   0.24999996  0.31693221  0.70647027
   0.74999963  0.68307452  0.29353644
   0.74999997  0.81680917  0.79364938
Direct configuration=    17
   0.24999992  0.06393174  0.85445562
   0.75000032  0.93605475  0.14554240
   0.75000015  0.56399496  0.64559087
   0.24999963  0.43602102  0.35440938
   0.25000015  0.71422489  0.56520261
   0.74999998  0.21420497  0.93481751
   0.25000036  0.78576811  0.06518098
   0.74999949  0.28581002  0.43480714
   0.25000010  0.18221603  0.20375347
   0.25000016  0.31784410  0.70383338
   0.74999977  0.68216850  0.29616388
   0.74999998  0.81776191  0.79624376
Direct configuration=    18
   0.24999997  0.06478766  0.85462175
   0.75000031  0.93519916  0.14537593
   0.75000010  0.56484399  0.64542498
   0.24999961  0.43517034  0.35457506
   0.25000017  0.71516623  0.56497138
   0.74999997  0.21513703  0.93505392
   0.25000028  0.78483741  0.06494494
   0.74999958  0.28486777  0.43503647
   0.25000008  0.18253804  0.20358397
   0.25000015  0.31750779  0.70365335
   0.74999980  0.68250218  0.29634444
   0.74999997  0.81744340  0.79641481
Direct configuration=    19
   0.25000013  0.06735544  0.85512014
   0.75000029  0.93263239  0.14487650
   0.74999997  0.56739105  0.64492733
   0.24999955  0.43261831  0.35507209
   0.25000023  0.71799027  0.56427770
   0.74999992  0.21793323  0.93576314
   0.25000007  0.78204529  0.06423683
   0.74999984  0.28204104  0.43572447
   0.25000000  0.18350407  0.20307548
   0.25000013  0.31649886  0.70311325
   0.74999992  0.68350321  0.29688613
   0.74999996  0.81648784  0.79692794
Direct configuration=    20
   0.25000000  0.06786557  0.85508921
   0.75000011  0.93212522  0.14490734
   0.75000009  0.56791289  0.64495113
   0.24999982  0.43209740  0.35504585
   0.25000014  0.71866851  0.56436229
   0.75000004  0.21862423  0.93568384
   0.25000014  0.78135789  0.06431713
   0.74999968  0.28135486  0.43564174
   0.25000005  0.18286843  0.20310009
   0.25000005  0.31712717  0.70313270
   0.74999988  0.68287572  0.29686658
   0.75000001  0.81712311  0.79690310
Direct configuration=    21
   0.24999962  0.06939598  0.85499640
   0.74999955  0.93060372  0.14499986
   0.75000045  0.56947838  0.64502254
   0.25000062  0.43053467  0.35496716
   0.24999985  0.72070322  0.56461607
   0.75000043  0.22069724  0.93544594
   0.25000035  0.77929568  0.06455802
   0.74999919  0.27929630  0.43539353
   0.25000022  0.18096153  0.20317393
   0.24999982  0.31901213  0.70319103
   0.74999974  0.68099323  0.29680795
   0.75000015  0.81902891  0.79682859
Direct configuration=    22
   0.24999884  0.07245678  0.85481079
   0.74999845  0.92756071  0.14518489
   0.75000119  0.57260938  0.64516535
   0.25000223  0.42740920  0.35480977
   0.24999929  0.72477265  0.56512363
   0.75000119  0.22484326  0.93497013
   0.25000076  0.77517126  0.06503981
   0.74999823  0.27517920  0.43489711
   0.25000055  0.17714774  0.20332161
   0.24999936  0.32278205  0.70330769
   0.74999948  0.67722825  0.29669068
   0.75000044  0.82284052  0.79667955
Direct configuration=    23
   0.24999728  0.07857840  0.85443957
   0.74999625  0.92147471  0.14555495
   0.75000265  0.57887137  0.64545097
   0.25000545  0.42115826  0.35449498
   0.24999815  0.73291151  0.56613875
   0.75000272  0.23313529  0.93401852
   0.25000158  0.76692242  0.06600339
   0.74999629  0.26694498  0.43390426
   0.25000122  0.16952014  0.20361697
   0.24999843  0.33032189  0.70354101
   0.74999895  0.66969830  0.29645614
   0.75000103  0.83046372  0.79638149
Direct configuration=    24
   0.24999825  0.07478083  0.85466986
   0.74999761  0.92525019  0.14532538
   0.75000174  0.57498672  0.64527379
   0.25000345  0.42503606  0.35469026
   0.24999885  0.72786254  0.56550902
   0.75000177  0.22799130  0.93460885
   0.25000107  0.77203962  0.06540563
   0.74999749  0.27205311  0.43452018
   0.25000081  0.17425195  0.20343375
   0.24999901  0.32564452  0.70339626
   0.74999928  0.67436954  0.29660163
   0.75000067  0.82573464  0.79656640
Direct configuration=    25
   0.24999846  0.07532783  0.85464537
   0.74999781  0.92470393  0.14534918
   0.75000155  0.57551366  0.64530878
   0.25000311  0.42450237  0.35465850
   0.24999900  0.72814050  0.56554111
   0.75000160  0.22825281  0.93456745
   0.25000088  0.77177874  0.06544704
   0.74999780  0.27177981  0.43448462
   0.25000072  0.17381676  0.20345254
   0.24999907  0.32607885  0.70341172
   0.74999940  0.67393341  0.29658699
   0.75000060  0.82617232  0.79654770
Direct configuration=    26
   0.24999911  0.07696885  0.85457191
   0.74999838  0.92306515  0.14542057
   0.75000098  0.57709449  0.64541377
   0.25000210  0.42290130  0.35456323
   0.24999944  0.72897440  0.56563741
   0.75000108  0.22903737  0.93444322
   0.25000031  0.77099610  0.06557127
   0.74999873  0.27095993  0.43437793
   0.25000047  0.17251118  0.20350893
   0.24999924  0.32738182  0.70345810
   0.74999978  0.67262504  0.29654306
   0.75000039  0.82748536  0.79649160
Direct configuration=    27
   0.25000040  0.08025088  0.85442500
   0.74999953  0.91978761  0.14556337
   0.74999983  0.58025614  0.64562374
   0.25000007  0.41969917  0.35437269
   0.25000031  0.73064218  0.56582999
   0.75000005  0.23060649  0.93419476
   0.24999917  0.76943082  0.06581973
   0.75000059  0.26932017  0.43416457
   0.24999995  0.16990004  0.20362170
   0.24999959  0.32998777  0.70355086
   0.75000052  0.67000830  0.29645519
   0.74999999  0.83011143  0.79637940
Direct configuration=    28
   0.25000298  0.08681495  0.85413116
   0.75000182  0.91323251  0.14584895
   0.74999754  0.58657944  0.64604369
   0.24999600  0.41329491  0.35399162
   0.25000206  0.73397776  0.56621516
   0.74999799  0.23374472  0.93369786
   0.24999688  0.76630025  0.06631666
   0.75000430  0.26604064  0.43373784
   0.24999893  0.16467774  0.20384724
   0.25000029  0.33519967  0.70373637
   0.75000202  0.66477482  0.29627946
   0.74999918  0.83536359  0.79615500
Direct configuration=    29
   0.25000088  0.08922423  0.85370099
   0.75000050  0.91081037  0.14629897
   0.74999866  0.58910974  0.64636045
   0.24999922  0.41082999  0.35365417
   0.25000109  0.73541333  0.56587795
   0.74999909  0.23531250  0.93410059
   0.24999796  0.76472125  0.06590242
   0.75000244  0.26455970  0.43409435
   0.24999919  0.16231008  0.20385055
   0.25000006  0.33755408  0.70376704
   0.75000136  0.66242050  0.29624302
   0.74999956  0.83773523  0.79615050
Direct configuration=    30
   0.24999786  0.09269011  0.85308216
   0.74999859  0.90732599  0.14694634
   0.75000026  0.59274972  0.64681612
   0.25000384  0.40728407  0.35316873
   0.24999968  0.73747848  0.56539286
   0.75000067  0.23756783  0.93467994
   0.24999952  0.76244978  0.06530652
   0.74999976  0.26242929  0.43460721
   0.24999956  0.15890408  0.20385532
   0.24999972  0.34094101  0.70381118
   0.75000041  0.65903368  0.29619059
   0.75000011  0.84114697  0.79614404
Direct configuration=    31
   0.24999789  0.09462219  0.85334732
   0.74999798  0.90537724  0.14667934
   0.75000091  0.59468210  0.64657437
   0.25000394  0.40536503  0.35341736
   0.24999916  0.73880044  0.56484419
   0.75000025  0.23889019  0.93520344
   0.25000014  0.76113629  0.06478990
   0.74999998  0.26111033  0.43515428
   0.24999973  0.15634198  0.20377145
   0.24999962  0.34355044  0.70373000
   0.75000052  0.65643148  0.29626839
   0.74999989  0.84369330  0.79622097
Direct configuration=    32
   0.24999795  0.10041844  0.85414279
   0.74999613  0.89953101  0.14587831
   0.75000285  0.60047924  0.64584912
   0.25000425  0.39960791  0.35416323
   0.24999759  0.74276630  0.56319818
   0.74999896  0.24285729  0.93677394
   0.25000198  0.75719581  0.06324005
   0.75000064  0.25715343  0.43679548
   0.25000022  0.14865570  0.20351983
   0.24999933  0.35137873  0.70348648
   0.75000085  0.64862488  0.29650181
   0.74999922  0.85133228  0.79645179
Direct configuration=    33
   0.24999895  0.10235072  0.85471126
   0.75000150  0.89767084  0.14531067
   0.74999805  0.60232494  0.64530557
   0.25000064  0.39764513  0.35471734
   0.25000151  0.74371498  0.56275227
   0.74999803  0.24371325  0.93716944
   0.24999786  0.75629146  0.06282568
   0.75000325  0.25627469  0.43721825
   0.24999902  0.14708022  0.20417444
   0.25000050  0.35297006  0.70414861
   0.75000203  0.64703498  0.29585061
   0.74999865  0.85292975  0.79581687
Direct configuration=    34
   0.24999929  0.10300263  0.85490305
   0.75000331  0.89704326  0.14511915
   0.74999643  0.60294764  0.64512218
   0.24999942  0.39698292  0.35490428
   0.25000283  0.74403504  0.56260182
   0.74999772  0.24400203  0.93730287
   0.24999647  0.75598635  0.06268589
   0.75000413  0.25597822  0.43736089
   0.24999861  0.14654868  0.20439530
   0.25000090  0.35350694  0.70437200
   0.75000243  0.64649858  0.29563091
   0.74999846  0.85346870  0.79560266
Direct configuration=    35
   0.24999996  0.10430646  0.85528662
   0.75000693  0.89578809  0.14473613
   0.74999318  0.60419305  0.64475541
   0.24999698  0.39565852  0.35527817
   0.25000548  0.74467517  0.56230094
   0.74999709  0.24457960  0.93756974
   0.24999369  0.75537612  0.06240629
   0.75000589  0.25538528  0.43764616
   0.24999780  0.14548561  0.20483701
   0.25000169  0.35458071  0.70481878
   0.75000323  0.64542578  0.29519151
   0.74999808  0.85454661  0.79517425
Direct configuration=    36
   0.24999943  0.10328619  0.85498647
   0.75000409  0.89677028  0.14503585
   0.74999572  0.60321850  0.64504242
   0.24999889  0.39669489  0.35498560
   0.25000341  0.74417426  0.56253639
   0.74999758  0.24412764  0.93736091
   0.24999587  0.75585363  0.06262508
   0.75000451  0.25584926  0.43742293
   0.24999843  0.14631748  0.20449136
   0.25000107  0.35374047  0.70446916
   0.75000261  0.64626526  0.29553535
   0.74999838  0.85370313  0.79550949
Direct configuration=    37
   0.24999858  0.10390066  0.85487915
   0.74999890  0.89610078  0.14511971
   0.75000082  0.60395385  0.64506397
   0.25000219  0.39603410  0.35492262
   0.24999918  0.74480581  0.56201921
   0.74999873  0.24484553  0.93794476
   0.25000074  0.75517310  0.06205717
   0.75000090  0.25515359  0.43798184
   0.25000057  0.14488094  0.20522873
   0.24999929  0.35516372  0.70522465
   0.75000138  0.64484676  0.29478073
   0.74999872  0.85514216  0.79477846
Direct configuration=    38
   0.24999856  0.10391365  0.85487688
   0.74999879  0.89608662  0.14512149
   0.75000092  0.60396940  0.64506443
   0.25000226  0.39602013  0.35492129
   0.24999909  0.74481917  0.56200827
   0.74999875  0.24486071  0.93795711
   0.25000085  0.75515870  0.06204515
   0.75000083  0.25513888  0.43799366
   0.25000061  0.14485056  0.20524433
   0.24999925  0.35519382  0.70524063
   0.75000136  0.64481675  0.29476477
   0.74999873  0.85517260  0.79476300
Direct configuration=    39
   0.24999829  0.10406034  0.85493774
   0.74999861  0.89592038  0.14504674
   0.75000096  0.60412126  0.64501495
   0.25000245  0.39590679  0.35496657
   0.24999820  0.74457909  0.56181677
   0.74999953  0.24459961  0.93816393
   0.25000224  0.75543236  0.06184818
   0.74999957  0.25536956  0.43819707
   0.25000143  0.14316871  0.20568974
   0.24999878  0.35688120  0.70567830
   0.75000082  0.64312222  0.29432859
   0.74999911  0.85683948  0.79431243
Direct configuration=    40
   0.24999799  0.10421656  0.85500255
   0.74999841  0.89574333  0.14496714
   0.75000100  0.60428300  0.64496225
   0.25000266  0.39578607  0.35501479
   0.24999725  0.74432340  0.56161281
   0.75000037  0.24432151  0.93838421
   0.25000373  0.75572382  0.06163840
   0.74999824  0.25561525  0.43841370
   0.25000229  0.14137746  0.20616412
   0.24999828  0.35867833  0.70614445
   0.75000025  0.64131747  0.29386403
   0.74999952  0.85861478  0.79383254
Direct configuration=    41
   0.25000078  0.10466296  0.85511271
   0.75000868  0.89540877  0.14490576
   0.74999568  0.60462256  0.64487148
   0.24999711  0.39528296  0.35514821
   0.25000109  0.74394873  0.56147671
   0.74999792  0.24385358  0.93848677
   0.24999711  0.75609147  0.06148830
   0.75000233  0.25611518  0.43849842
   0.24999988  0.14114284  0.20625315
   0.24999952  0.35887565  0.70624564
   0.75000143  0.64112519  0.29376108
   0.74999848  0.85887111  0.79375277
Direct configuration=    42
   0.25000023  0.10457515  0.85509104
   0.75000666  0.89547458  0.14491783
   0.74999673  0.60455577  0.64488934
   0.24999821  0.39538192  0.35512196
   0.25000033  0.74402243  0.56150348
   0.74999840  0.24394563  0.93846659
   0.24999841  0.75601915  0.06151783
   0.75000153  0.25601684  0.43848176
   0.25000035  0.14118899  0.20623564
   0.24999928  0.35883684  0.70622574
   0.75000120  0.64116301  0.29378133
   0.74999868  0.85882069  0.79376846
Direct configuration=    43
   0.25000002  0.10454091  0.85508259
   0.75000587  0.89550025  0.14492254
   0.74999713  0.60452972  0.64489630
   0.24999863  0.39542052  0.35511173
   0.25000004  0.74405117  0.56151392
   0.74999859  0.24398152  0.93845873
   0.24999892  0.75599095  0.06152934
   0.75000122  0.25597849  0.43847526
   0.25000054  0.14120699  0.20622881
   0.24999918  0.35882170  0.70621797
   0.75000111  0.64117776  0.29378923
   0.74999876  0.85880102  0.79377458
Direct configuration=    44
   0.25000072  0.10464202  0.85507427
   0.75000511  0.89535206  0.14493155
   0.74999617  0.60467421  0.64491494
   0.24999705  0.39531998  0.35508611
   0.24999822  0.74395037  0.56132422
   0.74999931  0.24390294  0.93865275
   0.25000392  0.75609963  0.06134651
   0.74999956  0.25604945  0.43867779
   0.25000232  0.14120830  0.20623544
   0.24999841  0.35880311  0.70622312
   0.75000023  0.64120471  0.29377330
   0.74999899  0.85879423  0.79376101
