unknown system                          
   1.00000000000000     
     0.000004    2.028819    2.028819
     2.028819    0.000004    2.028819
     2.028819    2.028819    0.000004
   Li   F 
     1     1
Direct
  0.000000  0.000000  0.000000
  0.500000  0.500000  0.500000
 
   48   48   48
  1.57833459600E+03  7.99381365041E+02  4.13497718031E+02  2.18069883980E+02  1.17046909340E+02
  6.38274292501E+01  3.53544398852E+01  1.99293064690E+01  1.14776836401E+01  6.79445942036E+00
  4.17416462442E+00  2.70290638748E+00  1.86356033350E+00  1.43958115075E+00  1.22026754029E+00
  1.11710016459E+00  1.08040442023E+00  1.08143122175E+00  1.10235078650E+00  1.13136087899E+00
  1.16062406779E+00  1.18541528829E+00  1.20348076097E+00  1.21421681812E+00  1.21775090084E+00
  1.21421667262E+00  1.20348047437E+00  1.18541487039E+00  1.16062353499E+00  1.13136025399E+00
  1.10235009810E+00  1.08143050115E+00  1.08040369743E+00  1.11709946299E+00  1.22026687069E+00
  1.43958050165E+00  1.86355965440E+00  2.70290554788E+00  4.17416341592E+00  6.79445739896E+00
  1.14776799241E+01  1.99292992980E+01  3.53544257842E+01  6.38274013491E+01  1.17046853970E+02
  2.18069773490E+02  4.13497495411E+02  7.99380911521E+02  7.99381436531E+02  4.92426278251E+02
  2.72967249280E+02  1.49313607680E+02  8.20588357011E+01  4.55486076932E+01  2.56236955470E+01
  1.46704871091E+01  8.59611709437E+00  5.19643505453E+00  3.28222910457E+00  2.20793206051E+00
  1.60720071968E+00  1.30694405447E+00  1.15768388543E+00  1.09467301078E+00  1.08111934546E+00
  1.09495795847E+00  1.12193398215E+00  1.15246596567E+00  1.18039522234E+00  1.20234205163E+00
  1.21699693924E+00  1.22422790271E+00  1.22422774852E+00  1.21699651963E+00  1.20234140125E+00
  1.18039439168E+00  1.15246504690E+00  1.12193306528E+00  1.09495714250E+00  1.08111871226E+00
  1.09467264004E+00  1.15768385550E+00  1.30694447512E+00  1.60720178746E+00  2.20793425813E+00
  3.28223313391E+00  5.19644234896E+00  8.59613031097E+00  1.46705110620E+01  2.56237388141E+01
  4.55486855561E+01  8.20589758493E+01  1.49313860670E+02  2.72967703410E+02  4.92427040130E+02
  7.99382161111E+02  4.13497758111E+02  2.72967260010E+02  1.63036132490E+02  9.39883574331E+01
  5.36413574142E+01  3.06692846670E+01  1.77039850011E+01  1.03917572050E+01  6.25263639805E+00
  3.89996882676E+00  2.56475737830E+00  1.79979423981E+00  1.41235823148E+00  1.21303989867E+00
  1.12148450026E+00  1.09211468597E+00  1.09816523975E+00  1.12276024340E+00  1.15456984031E+00
  1.18600238528E+00  1.21245697072E+00  1.23172490639E+00  1.24319786212E+00  1.24698119587E+00
  1.24319744696E+00  1.23172410159E+00  1.21245588255E+00  1.18600114343E+00  1.15456858613E+00
  1.12275912766E+00  1.09816440671E+00  1.09211426753E+00  1.12148462390E+00  1.21304073233E+00
  1.41236006883E+00  1.79979765408E+00  2.56476374598E+00  3.89998012316E+00  6.25265654156E+00
  1.03917932800E+01  1.77040493491E+01  3.06693984810E+01  5.36415562702E+01  9.39886989011E+01
  1.63036696650E+02  2.72968094650E+02  4.13498605191E+02  4.92427223780E+02  2.18069907120E+02
  1.49313617130E+02  9.39883601171E+01  5.67721424052E+01  3.36931355791E+01  1.99303345731E+01
  1.18749225820E+01  7.19558791747E+00  4.48393561007E+00  2.91874025520E+00  2.02675449448E+00
  1.52750074418E+00  1.27789339748E+00  1.15729344849E+00  1.11173786015E+00  1.10975410147E+00
  1.13184787842E+00  1.16502324043E+00  1.20034551926E+00  1.23199576079E+00  1.25674608721E+00
  1.27331152064E+00  1.28151881793E+00  1.28151854134E+00  1.27331071164E+00  1.25674484754E+00
  1.23199422686E+00  1.20034386067E+00  1.16502166623E+00  1.13184658137E+00  1.10975326367E+00
  1.11173764678E+00  1.15729405717E+00  1.27789514065E+00  1.52750421846E+00  2.02676113262E+00
  2.91875208869E+00  4.48395652874E+00  7.19562475657E+00  1.18749868871E+01  1.99304451990E+01
  3.36933218502E+01  5.67724461681E+01  9.39888291473E+01  1.49314264740E+02  2.18070594440E+02
  2.72968159570E+02  2.72967832500E+02  1.17046923040E+02  8.20588424901E+01  5.36413602122E+01
  3.36931364221E+01  2.07542341221E+01  1.27226451010E+01  7.85567790458E+00  4.94566216018E+00
  3.22332805621E+00  2.21917777247E+00  1.63990196787E+00  1.34514310162E+00  1.19754687481E+00
  1.13667041563E+00  1.12702220969E+00  1.14678312283E+00  1.18150044176E+00  1.22107750975E+00
  1.25857984371E+00  1.28973396659E+00  1.31243143077E+00  1.32602137820E+00  1.33052370586E+00
  1.32602070576E+00  1.31243017645E+00  1.28973224133E+00  1.25857783874E+00  1.22107544345E+00
  1.18149853103E+00  1.14678158106E+00  1.12702123791E+00  1.13667023287E+00  1.19754778684E+00
  1.34514565024E+00  1.63990718158E+00  2.21918797433E+00  3.22334635548E+00  4.94569421656E+00
  7.85573295010E+00  1.27227373790E+01  2.07543843622E+01  3.36933711850E+01  5.36417053502E+01
  8.20593003561E+01  1.17047422700E+02  1.49314290050E+02  1.63036754190E+02  1.49313935710E+02
  6.38274375351E+01  4.55486122892E+01  3.06692869310E+01  1.99303355351E+01  1.27226454020E+01
  8.09387842558E+00  5.20206980258E+00  3.43075923471E+00  2.36786505656E+00  1.73504134497E+00
  1.40642617289E+00  1.23698004613E+00  1.16317139826E+00  1.14697302070E+00  1.16490728260E+00
  1.20143775211E+00  1.24557925146E+00  1.28947522143E+00  1.32787957560E+00  1.35779461190E+00
  1.37792424127E+00  1.38796777405E+00  1.38796739651E+00  1.37792313546E+00  1.35779286658E+00
  1.32787736467E+00  1.28947274038E+00  1.24557670948E+00  1.20143538277E+00  1.16490530283E+00
  1.14697165705E+00  1.16317093353E+00  1.23698094633E+00  1.40642928682E+00  1.73504822581E+00
  2.36787896202E+00  3.43078424968E+00  5.20211280466E+00  8.09394955267E+00  1.27227583401E+01
  1.99305066000E+01  3.06695300932E+01  4.55489269330E+01  6.38277870862E+01  8.20593109801E+01
  9.39888548183E+01  9.39887371641E+01  8.20590175283E+01  3.53544449702E+01  2.56236985960E+01
  1.77039866741E+01  1.18749234130E+01  7.85567825768E+00  5.20206990688E+00  3.50445495551E+00
  2.44914914216E+00  1.79897312807E+00  1.45327442649E+00  1.27017112833E+00  1.18740152552E+00
  1.16655154754E+00  1.18351654814E+00  1.22222225739E+00  1.27115513549E+00  1.32180420393E+00
  1.36811409376E+00  1.40622590343E+00  1.43409577224E+00  1.45092194295E+00  1.45653109703E+00
  1.45092112545E+00  1.43409419374E+00  1.40622369564E+00  1.36811138869E+00  1.32180119322E+00
  1.27115202610E+00  1.22221924459E+00  1.18351384338E+00  1.16654940806E+00  1.18740034114E+00
  1.27017157279E+00  1.45327770832E+00  1.79898133229E+00  2.44916631552E+00  3.50448571720E+00
  5.20212139295E+00  7.85575955241E+00  1.18750445480E+01  1.77041554611E+01  2.56239141080E+01
  3.53546875802E+01  4.55489316440E+01  5.36417170842E+01  5.67724650871E+01  5.36415794042E+01
  4.55487084221E+01  1.99293096300E+01  1.46704891121E+01  1.03917583820E+01  7.19558854627E+00
  4.94566244888E+00  3.43075933081E+00  2.44914915116E+00  1.82152850347E+00  1.47868941219E+00
  1.29232161353E+00  1.20585064201E+00  1.18292190956E+00  1.20007591718E+00  1.24138170726E+00
  1.29522388874E+00  1.35275465730E+00  1.40734116625E+00  1.45438072482E+00  1.49106459437E+00
  1.51595801429E+00  1.52848552715E+00  1.52848509988E+00  1.51595676528E+00  1.49106258696E+00
  1.45437804424E+00  1.40733795313E+00  1.35275104871E+00  1.29522002521E+00  1.24137776757E+00
  1.20007211150E+00  1.18291854822E+00  1.20584823813E+00  1.29232107267E+00  1.47869228932E+00
  1.82153731148E+00  2.44916839523E+00  3.43079360588E+00  4.94571798027E+00  7.19567190725E+00
  1.03918743081E+01  1.46706369920E+01  1.99294786261E+01  2.56239162990E+01  3.06695356272E+01
  3.36933805350E+01  3.36933342142E+01  3.06694119650E+01  2.56237513751E+01  1.14776856171E+01
  8.59611838937E+00  6.25263717465E+00  4.48393601817E+00  3.22332821921E+00  2.36786507396E+00
  1.79897307847E+00  1.47868936239E+00  1.30010298904E+00  1.21581393210E+00  1.19376554247E+00
  1.21243519174E+00  1.25676489830E+00  1.31549177522E+00  1.37976845812E+00  1.44265467678E+00
  1.49899052465E+00  1.54527294907E+00  1.57937852801E+00  1.60017600453E+00  1.60715521157E+00
  1.60017517282E+00  1.57937688414E+00  1.54527052884E+00  1.49898740447E+00  1.44265089827E+00
  1.37976410117E+00  1.31548694666E+00  1.25675972591E+00  1.21242988885E+00  1.19376048128E+00
  1.21580977021E+00  1.30010084923E+00  1.47869106832E+00  1.79898137154E+00  2.36788447403E+00
  3.22336270439E+00  4.48399020903E+00  6.25271441199E+00  8.59621869994E+00  1.14778029101E+01
  1.46706380600E+01  1.77041581641E+01  1.99305112950E+01  2.07543909042E+01  1.99304528680E+01
  1.77040571281E+01  1.46705180480E+01  6.79446063476E+00  5.19643584033E+00  3.89996926666E+00
  2.91874043430E+00  2.21917777117E+00  1.73504123387E+00  1.45327427309E+00  1.29232147103E+00
  1.21581384400E+00  1.19755752957E+00  1.21902800563E+00  1.26670238622E+00  1.33010004965E+00
  1.40069786654E+00  1.47152374938E+00  1.53708593763E+00  1.59332961643E+00  1.63747276296E+00
  1.66774261109E+00  1.68311179580E+00  1.68311139357E+00  1.66774139951E+00  1.63747075616E+00
  1.59332681316E+00  1.53708231026E+00  1.47151930596E+00  1.40069260513E+00  1.33009398961E+00
  1.26669564260E+00  1.21902081231E+00  1.19755033096E+00  1.21580741638E+00  1.29231709427E+00
  1.45327390151E+00  1.73504759190E+00  2.21919499092E+00  2.91877151578E+00  3.90001696186E+00
  5.19650077372E+00  6.79453966609E+00  8.59621924474E+00  1.03918756841E+01  1.18750469710E+01
  1.27227618301E+01  1.27227416910E+01  1.18749915621E+01  1.03917978030E+01  8.59613428597E+00
  4.17416530142E+00  3.28222948727E+00  2.56475751270E+00  2.02675443628E+00  1.63990177367E+00
  1.40642590509E+00  1.27017083913E+00  1.20585037691E+00  1.19376533917E+00  1.21902789343E+00
  1.27013570462E+00  1.33774142792E+00  1.41392544347E+00  1.49193586051E+00  1.56618044588E+00
  1.63223887464E+00  1.68677591532E+00  1.72737608592E+00  1.75238712248E+00  1.76083231698E+00
  1.75238635579E+00  1.72737453604E+00  1.68677354296E+00  1.63223561182E+00  1.56617623514E+00
  1.49193058898E+00  1.41391904379E+00  1.33773389872E+00  1.27012712311E+00  1.21901850496E+00
  1.19375564378E+00  1.20584124026E+00  1.27016361297E+00  1.40642252355E+00  1.63990472675E+00
  2.02676716826E+00  2.56478199478E+00  3.28226685943E+00  4.17421437377E+00  5.19650106052E+00
  6.25271513569E+00  7.19567319425E+00  7.85576144851E+00  8.09395198407E+00  7.85573571980E+00
  7.19562760177E+00  6.25265920736E+00  5.19644466446E+00  2.70290663988E+00  2.20793209211E+00
  1.79979407761E+00  1.52750044088E+00  1.34514270452E+00  1.23697960313E+00  1.18740108152E+00
  1.18292150376E+00  1.21243485654E+00  1.26670214652E+00  1.33774130172E+00  1.41844784268E+00
  1.50249762735E+00  1.58440768725E+00  1.65958972072E+00  1.72431026270E+00  1.77558911595E+00
  1.81112612907E+00  1.82931359428E+00  1.82931321507E+00  1.81112498696E+00  1.77558716007E+00
  1.72430742426E+00  1.65958588876E+00  1.58440269141E+00  1.50249133522E+00  1.41844012688E+00
  1.33773208685E+00  1.26669151237E+00  1.21242307106E+00  1.18290910104E+00  1.18738894968E+00
  1.23696906824E+00  1.34513554715E+00  1.52749877980E+00  1.79980002398E+00  2.20794786714E+00
  2.70293176574E+00  3.28226700723E+00  3.90001734346E+00  4.48399089823E+00  4.94571901607E+00
  5.20212275985E+00  5.20211442276E+00  4.94569595696E+00  4.48395824834E+00  3.89998169756E+00
  3.28223448251E+00  1.86356020810E+00  1.60720042378E+00  1.41235779358E+00  1.27789285538E+00
  1.19754627041E+00  1.16317077366E+00  1.16655094154E+00  1.20007536328E+00  1.25676442350E+00
  1.33009967445E+00  1.41392518267E+00  1.50249749225E+00  1.59061343368E+00  1.67369762071E+00
  1.74779059017E+00  1.80948104896E+00  1.85588188423E+00  1.88471752895E+00  1.89450232373E+00
  1.88471673780E+00  1.85588027310E+00  1.80947855395E+00  1.74778709735E+00  1.67369296405E+00
  1.59060745538E+00  1.50248996921E+00  1.41391595191E+00  1.33008867580E+00  1.25675170471E+00
  1.20006117159E+00  1.16653581015E+00  1.16315556580E+00  1.19753221466E+00  1.27788150978E+00
  1.41235087392E+00  1.60719946380E+00  1.86356606489E+00  2.20794793204E+00  2.56478217878E+00
  2.91877186528E+00  3.22336324809E+00  3.43079434598E+00  3.50448662270E+00  3.43078526188E+00
  3.22334739628E+00  2.91875308129E+00  2.56476462838E+00  2.20793499303E+00  1.43958069595E+00
  1.30694346247E+00  1.21303919917E+00  1.15729267729E+00  1.13666961083E+00  1.14697221940E+00
  1.18351578344E+00  1.24138100676E+00  1.31549116032E+00  1.40069735294E+00  1.49193546021E+00
  1.58440741025E+00  1.67369747711E+00  1.75578054956E+00  1.82697066256E+00  1.88391636617E+00
  1.92372660851E+00  1.94422275850E+00  1.94422231481E+00  1.92372525404E+00  1.88391407427E+00
  1.82696735320E+00  1.75577611704E+00  1.67369176783E+00  1.58440019401E+00  1.49192655128E+00
  1.40068657221E+00  1.31547837868E+00  1.24136628418E+00  1.18349936067E+00  1.14695457022E+00
  1.13665153676E+00  1.15727525809E+00  1.21302375041E+00  1.30693135911E+00  1.43957307382E+00
  1.60719947350E+00  1.79980007908E+00  2.02676730656E+00  2.21919523002E+00  2.36788482083E+00
  2.44916883973E+00  2.44916683112E+00  2.36787950972E+00  2.21918851043E+00  2.02676161632E+00
  1.79979803588E+00  1.60720207516E+00  1.22026678379E+00  1.15768302223E+00  1.12148356116E+00
  1.11173687935E+00  1.12702122159E+00  1.16490631910E+00  1.22222134539E+00  1.29522304954E+00
  1.37976770732E+00  1.47152309818E+00  1.56617990358E+00  1.65958929692E+00  1.74779029587E+00
  1.82697050986E+00  1.89346444768E+00  1.94388545842E+00  1.97541079270E+00  1.98614273344E+00
  1.97540971069E+00  1.94388329171E+00  1.89346117507E+00  1.82696608719E+00  1.74778462872E+00
  1.65958223237E+00  1.56617130862E+00  1.47151275284E+00  1.37975541774E+00  1.29520870722E+00
  1.22220493717E+00  1.16488807705E+00  1.12700153514E+00  1.11171642283E+00  1.12146331325E+00
  1.15766408021E+00  1.22025029918E+00  1.30693133291E+00  1.41235084682E+00  1.52749877360E+00
  1.63990475745E+00  1.73504766700E+00  1.79898148954E+00  1.82153746228E+00  1.79898149839E+00
  1.73504838571E+00  1.63990731368E+00  1.52750430456E+00  1.41236009753E+00  1.30694444342E+00
  1.11709913889E+00  1.09467190838E+00  1.09211353787E+00  1.10975293947E+00  1.14678197673E+00
  1.20143664771E+00  1.27115409309E+00  1.35275369140E+00  1.44265379738E+00  1.53708515233E+00
  1.63223819084E+00  1.72430969020E+00  1.80948060036E+00  1.88391605567E+00  1.94388529902E+00
  1.98604282281E+00  2.00782228151E+00  2.00782161391E+00  1.98604083502E+00  1.94388200564E+00
  1.88391147646E+00  1.80947473268E+00  1.72430250502E+00  1.63222963971E+00  1.53707505537E+00
  1.44264204758E+00  1.35274014930E+00  1.27113856723E+00  1.20141902213E+00  1.14676244058E+00
  1.10973188596E+00  1.09209147841E+00  1.09464971210E+00  1.11707776523E+00  1.15766402921E+00
  1.21302366611E+00  1.27788140848E+00  1.34513544106E+00  1.40642241965E+00  1.45327380151E+00
  1.47869096912E+00  1.47869218432E+00  1.45327758852E+00  1.40642914272E+00  1.34514547334E+00
  1.27789492505E+00  1.21304047613E+00  1.15768356160E+00  1.08040316513E+00  1.08111804346E+00
  1.09816392035E+00  1.13184656962E+00  1.18149916776E+00  1.24557803116E+00  1.32180305043E+00
  1.40734008815E+00  1.49898952705E+00  1.59332870413E+00  1.68677509532E+00  1.77558839875E+00
  1.85588128433E+00  1.92372614211E+00  1.97541047460E+00  2.00782212141E+00  2.01887144282E+00
  2.00782050466E+00  1.97540727397E+00  1.92372142455E+00  1.85587513814E+00  1.77558092201E+00
  1.68676634613E+00  1.59331863697E+00  1.49897813212E+00  1.40732720876E+00  1.32178854108E+00
  1.24556178700E+00  1.18148099883E+00  1.13182652184E+00  1.09814234325E+00  1.08109532916E+00
  1.08038012511E+00  1.09464964450E+00  1.12146318985E+00  1.15727509069E+00  1.19753201256E+00
  1.23696883754E+00  1.27016335597E+00  1.29231681107E+00  1.30010053803E+00  1.29232073137E+00
  1.27017119949E+00  1.23698053963E+00  1.19754734684E+00  1.15729358557E+00  1.12148412470E+00
  1.09467211994E+00  1.08142978305E+00  1.09495650157E+00  1.12275879450E+00  1.16502182213E+00
  1.22107613965E+00  1.28947391133E+00  1.36811285056E+00  1.45437955162E+00  1.54527184777E+00
  1.63747173676E+00  1.72737514202E+00  1.81112527927E+00  1.88471678935E+00  1.94422214710E+00
  1.98614226624E+00  2.00782130201E+00  2.00782035116E+00  1.98613943427E+00  1.94421751437E+00
  1.88471049394E+00  1.81111750371E+00  1.72736605946E+00  1.63746147771E+00  1.54526055495E+00
  1.45436710609E+00  1.36809920392E+00  1.28945902354E+00  1.22105980083E+00  1.16500369616E+00
  1.12273890141E+00  1.09493519301E+00  1.08140737693E+00  1.08109525206E+00  1.09209133061E+00
  1.11171621183E+00  1.13665126936E+00  1.16315524650E+00  1.18738858068E+00  1.20584082216E+00
  1.21580694948E+00  1.21580925531E+00  1.20584767743E+00  1.18739973834E+00  1.16317029353E+00
  1.13666956167E+00  1.11173695118E+00  1.09211355542E+00  1.08111799266E+00  1.10234921330E+00
  1.12193241655E+00  1.15456830371E+00  1.20034402806E+00  1.25857840881E+00  1.32787820270E+00
  1.40622459383E+00  1.49106334757E+00  1.57937734351E+00  1.66774149149E+00  1.75238607528E+00
  1.82931263268E+00  1.89450146503E+00  1.94422157791E+00  1.97540911269E+00  1.98604038742E+00
  1.97540698127E+00  1.94421737287E+00  1.89449533015E+00  1.82930478680E+00  1.75237675133E+00
  1.66773096773E+00  1.57936590995E+00  1.49105106173E+00  1.40621156798E+00  1.32786436569E+00
  1.25856357711E+00  1.20032804102E+00  1.15455083279E+00  1.12191348697E+00  1.10232906069E+00
  1.09493511321E+00  1.09814218445E+00  1.10973165146E+00  1.12700122884E+00  1.14695419462E+00
  1.16653536655E+00  1.18290858924E+00  1.19375506398E+00  1.19754968486E+00  1.19375977278E+00
  1.18291778382E+00  1.16654859617E+00  1.14697080745E+00  1.12702036111E+00  1.10975237017E+00
  1.09816350691E+00  1.09495624600E+00  1.13135921949E+00  1.15246433567E+00  1.18600080058E+00
  1.23199423179E+00  1.28973249829E+00  1.35779320480E+00  1.43409442364E+00  1.51595672079E+00
  1.60017476423E+00  1.68311061080E+00  1.76083119518E+00  1.82931217007E+00  1.88471578760E+00
  1.92372441794E+00  1.94388258691E+00  1.94388144424E+00  1.92372101165E+00  1.88471022754E+00
  1.82930465910E+00  1.76082197271E+00  1.68310000974E+00  1.60016319645E+00  1.51594442166E+00
  1.43408173298E+00  1.35778003909E+00  1.28971876648E+00  1.23197999967E+00  1.18598578084E+00
  1.15244800763E+00  1.13134167220E+00  1.12191341097E+00  1.12273874471E+00  1.13182628324E+00
  1.14676212038E+00  1.16488767555E+00  1.18349887687E+00  1.20006060409E+00  1.21242241866E+00
  1.21901776836E+00  1.21901999541E+00  1.21242899905E+00  1.20007115940E+00  1.18351284188E+00
  1.16490426583E+00  1.14678052236E+00  1.13184551387E+00  1.12275806286E+00  1.12193201238E+00
  1.16062236679E+00  1.18039356854E+00  1.21245537492E+00  1.25674455451E+00  1.31242996157E+00
  1.37792283187E+00  1.45092058745E+00  1.52848421965E+00  1.60715394877E+00  1.68311017697E+00
  1.75238519289E+00  1.81112389136E+00  1.85587926250E+00  1.88391316787E+00  1.89346039007E+00
  1.88391082496E+00  1.85587462604E+00  1.81111713041E+00  1.75237651113E+00  1.68309989444E+00
  1.60714250962E+00  1.52847198277E+00  1.45090805537E+00  1.37791003613E+00  1.31241695817E+00
  1.25673155196E+00  1.21244211424E+00  1.18037949947E+00  1.16060721076E+00  1.15244794153E+00
  1.15455069069E+00  1.16500347226E+00  1.18148068953E+00  1.20141862443E+00  1.22220444767E+00
  1.24136569878E+00  1.25675102001E+00  1.26669072687E+00  1.27012623901E+00  1.26669466680E+00
  1.25675866951E+00  1.24137664557E+00  1.22221807379E+00  1.20143418047E+00  1.18149731323E+00
  1.16502044703E+00  1.15456737693E+00  1.15246385590E+00  1.18541358629E+00  1.20234041203E+00
  1.23172333559E+00  1.27331001944E+00  1.32601994300E+00  1.38796639755E+00  1.45652977033E+00
  1.52848381448E+00  1.60017392372E+00  1.66774018671E+00  1.72737336634E+00  1.77558604637E+00
  1.80947751355E+00  1.82696640470E+00  1.82696524749E+00  1.80947401388E+00  1.77558033060E+00
  1.72736559626E+00  1.66773062963E+00  1.60016297785E+00  1.52847187707E+00  1.45651743165E+00
  1.38795383475E+00  1.32600737961E+00  1.27329774307E+00  1.23171109585E+00  1.20232793648E+00
  1.18540047753E+00  1.18037944818E+00  1.18598566434E+00  1.20032784912E+00  1.22105952583E+00
  1.24556142230E+00  1.27113810603E+00  1.29520814222E+00  1.31547770308E+00  1.33008788480E+00
  1.33773117965E+00  1.33773287992E+00  1.33009286961E+00  1.31548574106E+00  1.29521875281E+00
  1.27115070730E+00  1.24557536378E+00  1.22107408835E+00  1.20034251067E+00  1.18599980943E+00
  1.18039308088E+00  1.20347909647E+00  1.21699535114E+00  1.24319635292E+00  1.28151738493E+00
  1.33052234156E+00  1.38796608981E+00  1.45091986385E+00  1.51595553758E+00  1.57937568274E+00
  1.63746957966E+00  1.68677239706E+00  1.72430632106E+00  1.74778605375E+00  1.75577515094E+00
  1.74778375632E+00  1.72430173862E+00  1.68676569273E+00  1.63746093991E+00  1.57936548715E+00
  1.51594411136E+00  1.45090785387E+00  1.38795373735E+00  1.33051002481E+00  1.28150544671E+00
  1.24318462606E+00  1.21698379387E+00  1.20346741922E+00  1.20232790318E+00  1.21244203124E+00
  1.23197985347E+00  1.25856335641E+00  1.28945871814E+00  1.32178814038E+00  1.35273964200E+00
  1.37975479294E+00  1.40068582051E+00  1.41391506811E+00  1.41843911188E+00  1.41391790549E+00
  1.40069135823E+00  1.37976276537E+00  1.35274964671E+00  1.32179974782E+00  1.28947127288E+00
  1.25857636744E+00  1.23199276636E+00  1.21245444385E+00  1.20233999115E+00  1.21421522902E+00
  1.22422640371E+00  1.24697978587E+00  1.28151721354E+00  1.32601944826E+00  1.37792193306E+00
  1.43409302984E+00  1.49106144696E+00  1.54526940304E+00  1.59332569876E+00  1.63223451372E+00
  1.65958481866E+00  1.67369193805E+00  1.67369080333E+00  1.65958134507E+00  1.63222884171E+00
  1.59331793607E+00  1.54525995575E+00  1.49105056653E+00  1.43408134248E+00  1.37790974983E+00
  1.32600719521E+00  1.28150535901E+00  1.24696822343E+00  1.22421523310E+00  1.21420426225E+00
  1.21698378027E+00  1.23171105095E+00  1.25673146066E+00  1.28971861488E+00  1.32786414029E+00
  1.36809889072E+00  1.40732679246E+00  1.44264151238E+00  1.47151208414E+00  1.49192573808E+00
  1.50248900721E+00  1.50249022792E+00  1.49192934838E+00  1.47151795106E+00  1.44264945287E+00
  1.40733644293E+00  1.36810983859E+00  1.32787579717E+00  1.28973067543E+00  1.25674329854E+00
  1.23172258099E+00  1.21699503533E+00  1.21774942524E+00  1.22422637572E+00  1.24319617176E+00
  1.27330952254E+00  1.31242905655E+00  1.35779179588E+00  1.40622265354E+00  1.45437701334E+00
  1.49898637327E+00  1.53708127536E+00  1.56617520124E+00  1.58440167021E+00  1.59060646238E+00
  1.58439924581E+00  1.56617042032E+00  1.53707423887E+00  1.49897739642E+00  1.45436645819E+00
  1.40621101298E+00  1.35777958129E+00  1.31241660017E+00  1.27329748497E+00  1.24318446406E+00
  1.22421515870E+00  1.21773857158E+00  1.22421523870E+00  1.24318462046E+00  1.27329771047E+00
  1.31241688367E+00  1.35777990719E+00  1.40621136198E+00  1.45436680719E+00  1.49897771962E+00
  1.53707450897E+00  1.56617061102E+00  1.58439933391E+00  1.59060643018E+00  1.58440150851E+00
  1.56617491084E+00  1.53708086796E+00  1.49898587127E+00  1.45437644824E+00  1.40622206344E+00
  1.35779122198E+00  1.31242853945E+00  1.27330909904E+00  1.24319587176E+00  1.22422622032E+00
  1.21421534632E+00  1.21699530623E+00  1.23172299099E+00  1.25674382274E+00  1.28973128013E+00
  1.32787644247E+00  1.36811048179E+00  1.40733704213E+00  1.44264997127E+00  1.47151835996E+00
  1.49192962918E+00  1.50249037312E+00  1.50248902001E+00  1.49192563038E+00  1.47151187454E+00
  1.44264122398E+00  1.40732645026E+00  1.36809851992E+00  1.32786376489E+00  1.28971825658E+00
  1.25673113846E+00  1.23171078085E+00  1.21698357487E+00  1.21420413105E+00  1.22421518200E+00
  1.24696825503E+00  1.28150547191E+00  1.32600738351E+00  1.37791000283E+00  1.43408164438E+00
  1.49105089663E+00  1.54526028895E+00  1.59331824437E+00  1.63222909641E+00  1.65958151937E+00
  1.67369087483E+00  1.67369189175E+00  1.65958464856E+00  1.63223422462E+00  1.59332530586E+00
  1.54526893134E+00  1.49106092926E+00  1.43409250404E+00  1.37792143896E+00  1.32601902426E+00
  1.28151689364E+00  1.24697959707E+00  1.22422636411E+00  1.20347932737E+00  1.20234037235E+00
  1.21245495625E+00  1.23199338046E+00  1.25857704534E+00  1.28947197178E+00  1.32180042382E+00
  1.35275025921E+00  1.37976328047E+00  1.40069175133E+00  1.41391816289E+00  1.41843923038E+00
  1.41391505401E+00  1.40068568711E+00  1.37975455894E+00  1.35273932930E+00  1.32178777198E+00
  1.28945831754E+00  1.25856294641E+00  1.23197945527E+00  1.21244166424E+00  1.20232758468E+00
  1.20346716362E+00  1.21698361307E+00  1.24318452836E+00  1.28150543681E+00  1.33051010261E+00
  1.38795389755E+00  1.45090808517E+00  1.51594439656E+00  1.57936580335E+00  1.63746125971E+00
  1.68676598653E+00  1.72430197711E+00  1.74778391342E+00  1.75577520654E+00  1.74778599605E+00
  1.72430614776E+00  1.68677211596E+00  1.63746920866E+00  1.57937524814E+00  1.51595507228E+00
  1.45091940515E+00  1.38796567591E+00  1.33052200926E+00  1.28151716633E+00  1.24319627262E+00
  1.21699542424E+00  1.18541392209E+00  1.18039356048E+00  1.18600040823E+00  1.20034319397E+00
  1.22107481485E+00  1.24557608908E+00  1.27115138850E+00  1.29521935211E+00  1.31548622926E+00
  1.33009322751E+00  1.33773309872E+00  1.33773125995E+00  1.33008783470E+00  1.31547753628E+00
  1.29520787642E+00  1.27113776123E+00  1.24556102000E+00  1.22105908813E+00  1.20032739822E+00
  1.18598522174E+00  1.18037903447E+00  1.18540011143E+00  1.20232763448E+00  1.23171087175E+00
  1.27329760727E+00  1.32600733791E+00  1.38795388755E+00  1.45651757295E+00  1.52847209407E+00
  1.60016325075E+00  1.66773093303E+00  1.72736590106E+00  1.77558060630E+00  1.80947423198E+00
  1.82696538409E+00  1.82696644280E+00  1.80947744455E+00  1.77558587127E+00  1.72737309534E+00
  1.66773983891E+00  1.60017352582E+00  1.52848339928E+00  1.45652937453E+00  1.38796605885E+00
  1.32601969690E+00  1.27330989644E+00  1.23172335779E+00  1.20234059123E+00  1.16062279179E+00
  1.15246441330E+00  1.15456803623E+00  1.16502116943E+00  1.18149805523E+00  1.20143489827E+00
  1.22221872759E+00  1.24137720257E+00  1.25675910631E+00  1.26669496990E+00  1.27012640401E+00
  1.26669075697E+00  1.25675092411E+00  1.24136548988E+00  1.22220414177E+00  1.20141824003E+00
  1.18148024683E+00  1.16500299266E+00  1.15455019649E+00  1.15244745483E+00  1.16060675346E+00
  1.18037909178E+00  1.21244177434E+00  1.25673129516E+00  1.31241679577E+00  1.37790997413E+00
  1.45090809337E+00  1.52847211297E+00  1.60714271642E+00  1.68310015554E+00  1.75237679903E+00
  1.81111741491E+00  1.85587487744E+00  1.88391101666E+00  1.89346050117E+00  1.88391318487E+00
  1.85587918000E+00  1.81112371226E+00  1.75238492889E+00  1.68310984777E+00  1.60715358147E+00
  1.52848384725E+00  1.45092024675E+00  1.37792256037E+00  1.31242979407E+00  1.25674451931E+00
  1.21245549062E+00  1.18039384204E+00  1.13135970969E+00  1.12193261768E+00  1.12275874806E+00
  1.13184623737E+00  1.14678124076E+00  1.16490493833E+00  1.18351343388E+00  1.20007164450E+00
  1.21242936045E+00  1.21902022491E+00  1.21901786516E+00  1.21242238726E+00  1.20006045309E+00
  1.18349861807E+00  1.16488732315E+00  1.14676169148E+00  1.13182579724E+00  1.12273822301E+00
  1.12191287607E+00  1.13134114720E+00  1.15244751523E+00  1.18598534254E+00  1.23197963467E+00
  1.28971849058E+00  1.35777986349E+00  1.43408166258E+00  1.51594445396E+00  1.60016332065E+00
  1.68310020754E+00  1.76082221931E+00  1.82930492580E+00  1.88471048454E+00  1.92372123125E+00
  1.94388160284E+00  1.94388266711E+00  1.92372440904E+00  1.88471568640E+00  1.82931198107E+00
  1.76083093068E+00  1.68311029120E+00  1.60017441753E+00  1.51595638119E+00  1.43409412864E+00
  1.35779299170E+00  1.28973240029E+00  1.23199427369E+00  1.18600099608E+00  1.15246468507E+00
  1.10234973640E+00  1.09495686160E+00  1.09816417631E+00  1.10975305147E+00  1.12702101341E+00
  1.14697139515E+00  1.16654909147E+00  1.18291816792E+00  1.19376003558E+00  1.19754982296E+00
  1.19375507908E+00  1.18290848624E+00  1.16653515285E+00  1.14695388032E+00  1.12700082664E+00
  1.10973117736E+00  1.09814165725E+00  1.09493455451E+00  1.10232849339E+00  1.12191293477E+00
  1.15455031889E+00  1.20032758742E+00  1.25856320301E+00  1.32786408639E+00  1.40621139318E+00
  1.49105099393E+00  1.57936594355E+00  1.66773108863E+00  1.75237693853E+00  1.82930501400E+00
  1.89449556885E+00  1.94421759507E+00  1.97540716207E+00  1.98604050672E+00  1.97540915589E+00
  1.94422153671E+00  1.89450133753E+00  1.82931242428E+00  1.75238579958E+00  1.66774117029E+00
  1.57937700661E+00  1.49106303067E+00  1.40622433513E+00  1.32787803850E+00  1.25857836901E+00
  1.20034413256E+00  1.15456855911E+00  1.12193281605E+00  1.08143030005E+00  1.08111857486E+00
  1.09211416283E+00  1.11173754328E+00  1.13667010257E+00  1.16317075483E+00  1.18740010074E+00
  1.20584793053E+00  1.21580939581E+00  1.21580697848E+00  1.20584074306E+00  1.18738839778E+00
  1.16315496550E+00  1.13665089806E+00  1.11171576143E+00  1.09209081591E+00  1.08109469166E+00
  1.08140679213E+00  1.09493460701E+00  1.12273833781E+00  1.16500317826E+00  1.22105934993E+00
  1.28945865814E+00  1.36809893732E+00  1.45436694529E+00  1.54526049895E+00  1.63746151731E+00
  1.72736617756E+00  1.81111767731E+00  1.88471069654E+00  1.94421771877E+00  1.98613961537E+00
  2.00782048736E+00  2.00782137591E+00  1.98614226574E+00  1.94422206520E+00  1.88471662535E+00
  1.81112504007E+00  1.72737484312E+00  1.63747140256E+00  1.54527151047E+00  1.45437924842E+00
  1.36811261906E+00  1.28947378523E+00  1.22107614375E+00  1.16502196933E+00  1.12275908370E+00
  1.09495691797E+00  1.08040363173E+00  1.09467262004E+00  1.12148461830E+00  1.15729403587E+00
  1.19754772484E+00  1.23698082643E+00  1.27017138659E+00  1.29232081857E+00  1.30010052963E+00