   2   2   0   0
  0.8350810E+01  0.2869183E-09  0.2869183E-09  0.2869183E-09  0.5000000E-15
  1.000000000000000E-004
  CAR 
 unknown system                          
     40.43290470    -46.05256479 4000     -1.08914983      1.00000000
    -46.053  0.0000E+00  0.0000E+00
    -46.031  0.0000E+00  0.0000E+00
    -46.009  0.0000E+00  0.0000E+00
    -45.988  0.0000E+00  0.0000E+00
    -45.966  0.0000E+00  0.0000E+00
    -45.944  0.0000E+00  0.0000E+00
    -45.923  0.0000E+00  0.0000E+00
    -45.901  0.0000E+00  0.0000E+00
    -45.880  0.0000E+00  0.0000E+00
    -45.858  0.0000E+00  0.0000E+00
    -45.836  0.0000E+00  0.0000E+00
    -45.815  0.0000E+00  0.0000E+00
    -45.793  0.0000E+00  0.0000E+00
    -45.771  0.0000E+00  0.0000E+00
    -45.750  0.0000E+00  0.0000E+00
    -45.728  0.0000E+00  0.0000E+00
    -45.707  0.0000E+00  0.0000E+00
    -45.685  0.0000E+00  0.0000E+00
    -45.663  0.0000E+00  0.0000E+00
    -45.642  0.0000E+00  0.0000E+00
    -45.620  0.0000E+00  0.0000E+00
    -45.598  0.0000E+00  0.0000E+00
    -45.577  0.0000E+00  0.0000E+00
    -45.555  0.0000E+00  0.0000E+00
    -45.534  0.0000E+00  0.0000E+00
    -45.512  0.0000E+00  0.0000E+00
    -45.490  0.0000E+00  0.0000E+00
    -45.469  0.0000E+00  0.0000E+00
    -45.447  0.0000E+00  0.0000E+00
    -45.425  0.0000E+00  0.0000E+00
    -45.404  0.0000E+00  0.0000E+00
    -45.382  0.0000E+00  0.0000E+00
    -45.361  0.0000E+00  0.0000E+00
    -45.339  0.0000E+00  0.0000E+00
    -45.317  0.0000E+00  0.0000E+00
    -45.296  0.0000E+00  0.0000E+00
    -45.274  0.0000E+00  0.0000E+00
    -45.252  0.0000E+00  0.0000E+00
    -45.231  0.0000E+00  0.0000E+00
    -45.209  0.0000E+00  0.0000E+00
    -45.187  0.0000E+00  0.0000E+00
    -45.166  0.0000E+00  0.0000E+00
    -45.144  0.0000E+00  0.0000E+00
    -45.123  0.0000E+00  0.0000E+00
    -45.101  0.0000E+00  0.0000E+00
    -45.079  0.0000E+00  0.0000E+00
    -45.058  0.0000E+00  0.0000E+00
    -45.036  0.0000E+00  0.0000E+00
    -45.014  0.0000E+00  0.0000E+00
    -44.993  0.0000E+00  0.0000E+00
    -44.971  0.0000E+00  0.0000E+00
    -44.950  0.0000E+00  0.0000E+00
    -44.928  0.0000E+00  0.0000E+00
    -44.906  0.0000E+00  0.0000E+00
    -44.885  0.0000E+00  0.0000E+00
    -44.863  0.0000E+00  0.0000E+00
    -44.841  0.0000E+00  0.0000E+00
    -44.820  0.0000E+00  0.0000E+00
    -44.798  0.0000E+00  0.0000E+00
    -44.777  0.0000E+00  0.0000E+00
    -44.755  0.0000E+00  0.0000E+00
    -44.733  0.0000E+00  0.0000E+00
    -44.712  0.0000E+00  0.0000E+00
    -44.690  0.0000E+00  0.0000E+00
    -44.668  0.0000E+00  0.0000E+00
    -44.647  0.0000E+00  0.0000E+00
    -44.625  0.0000E+00  0.0000E+00
    -44.604  0.0000E+00  0.0000E+00
    -44.582  0.0000E+00  0.0000E+00
    -44.560  0.0000E+00  0.0000E+00
    -44.539  0.0000E+00  0.0000E+00
    -44.517  0.0000E+00  0.0000E+00
    -44.495  0.0000E+00  0.0000E+00
    -44.474  0.0000E+00  0.0000E+00
    -44.452  0.0000E+00  0.0000E+00
    -44.431  0.0000E+00  0.0000E+00
    -44.409  0.0000E+00  0.0000E+00
    -44.387  0.0000E+00  0.0000E+00
    -44.366  0.0000E+00  0.0000E+00
    -44.344  0.0000E+00  0.0000E+00
    -44.322  0.0000E+00  0.0000E+00
    -44.301  0.0000E+00  0.0000E+00
    -44.279  0.0000E+00  0.0000E+00
    -44.258  0.0000E+00  0.0000E+00
    -44.236  0.0000E+00  0.0000E+00
    -44.214  0.0000E+00  0.0000E+00
    -44.193  0.0000E+00  0.0000E+00
    -44.171  0.0000E+00  0.0000E+00
    -44.149  0.0000E+00  0.0000E+00
    -44.128  0.0000E+00  0.0000E+00
    -44.106  0.0000E+00  0.0000E+00
    -44.085  0.0000E+00  0.0000E+00
    -44.063  0.0000E+00  0.0000E+00
    -44.041  0.0000E+00  0.0000E+00
    -44.020  0.0000E+00  0.0000E+00
    -43.998  0.0000E+00  0.0000E+00
    -43.976  0.0000E+00  0.0000E+00
    -43.955  0.0000E+00  0.0000E+00
    -43.933  0.0000E+00  0.0000E+00
    -43.912  0.0000E+00  0.0000E+00
    -43.890  0.0000E+00  0.0000E+00
    -43.868  0.0000E+00  0.0000E+00
    -43.847  0.0000E+00  0.0000E+00
    -43.825  0.0000E+00  0.0000E+00
    -43.803  0.0000E+00  0.0000E+00
    -43.782  0.0000E+00  0.0000E+00
    -43.760  0.0000E+00  0.0000E+00
    -43.738  0.0000E+00  0.0000E+00
    -43.717  0.0000E+00  0.0000E+00
    -43.695  0.0000E+00  0.0000E+00
    -43.674  0.0000E+00  0.0000E+00
    -43.652  0.0000E+00  0.0000E+00
    -43.630  0.0000E+00  0.0000E+00
    -43.609  0.0000E+00  0.0000E+00
    -43.587  0.0000E+00  0.0000E+00
    -43.565  0.0000E+00  0.0000E+00
    -43.544  0.0000E+00  0.0000E+00
    -43.522  0.0000E+00  0.0000E+00
    -43.501  0.0000E+00  0.0000E+00
    -43.479  0.0000E+00  0.0000E+00
    -43.457  0.0000E+00  0.0000E+00
    -43.436  0.0000E+00  0.0000E+00
    -43.414  0.0000E+00  0.0000E+00
    -43.392  0.0000E+00  0.0000E+00
    -43.371  0.0000E+00  0.0000E+00
    -43.349  0.0000E+00  0.0000E+00
    -43.328  0.0000E+00  0.0000E+00
    -43.306  0.0000E+00  0.0000E+00
    -43.284  0.0000E+00  0.0000E+00
    -43.263  0.0000E+00  0.0000E+00
    -43.241  0.0000E+00  0.0000E+00
    -43.219  0.0000E+00  0.0000E+00
    -43.198  0.0000E+00  0.0000E+00
    -43.176  0.0000E+00  0.0000E+00
    -43.155  0.0000E+00  0.0000E+00
    -43.133  0.0000E+00  0.0000E+00
    -43.111  0.0000E+00  0.0000E+00
    -43.090  0.0000E+00  0.0000E+00
    -43.068  0.0000E+00  0.0000E+00
    -43.046  0.0000E+00  0.0000E+00
    -43.025  0.0000E+00  0.0000E+00
    -43.003  0.0000E+00  0.0000E+00
    -42.982  0.0000E+00  0.0000E+00
    -42.960  0.0000E+00  0.0000E+00
    -42.938  0.0000E+00  0.0000E+00
    -42.917  0.0000E+00  0.0000E+00
    -42.895  0.0000E+00  0.0000E+00
    -42.873  0.0000E+00  0.0000E+00
    -42.852  0.0000E+00  0.0000E+00
    -42.830  0.0000E+00  0.0000E+00
    -42.809  0.0000E+00  0.0000E+00
    -42.787  0.0000E+00  0.0000E+00
    -42.765  0.0000E+00  0.0000E+00
    -42.744  0.0000E+00  0.0000E+00
    -42.722  0.0000E+00  0.0000E+00
    -42.700  0.0000E+00  0.0000E+00
    -42.679  0.0000E+00  0.0000E+00
    -42.657  0.0000E+00  0.0000E+00
    -42.636  0.0000E+00  0.0000E+00
    -42.614  0.0000E+00  0.0000E+00
    -42.592  0.0000E+00  0.0000E+00
    -42.571  0.0000E+00  0.0000E+00
    -42.549  0.0000E+00  0.0000E+00
    -42.527  0.0000E+00  0.0000E+00
    -42.506  0.0000E+00  0.0000E+00
    -42.484  0.0000E+00  0.0000E+00
    -42.463  0.0000E+00  0.0000E+00
    -42.441  0.0000E+00  0.0000E+00
    -42.419  0.0000E+00  0.0000E+00
    -42.398  0.0000E+00  0.0000E+00
    -42.376  0.0000E+00  0.0000E+00
    -42.354  0.0000E+00  0.0000E+00
    -42.333  0.0000E+00  0.0000E+00
    -42.311  0.0000E+00  0.0000E+00
    -42.290  0.0000E+00  0.0000E+00
    -42.268  0.0000E+00  0.0000E+00
    -42.246  0.0000E+00  0.0000E+00
    -42.225  0.0000E+00  0.0000E+00
    -42.203  0.0000E+00  0.0000E+00
    -42.181  0.0000E+00  0.0000E+00
    -42.160  0.2620E-08  0.5665E-10
    -42.138  0.1843E-02  0.3985E-04
    -42.116  0.9174E+00  0.1988E-01
    -42.095  0.7325E+01  0.1783E+00
    -42.073  0.2255E+02  0.6660E+00
    -42.052  0.5329E+02  0.1818E+01
    -42.030  0.8391E+01  0.2000E+01
    -42.008  0.3739E-02  0.2000E+01
    -41.987  0.4067E-09  0.2000E+01
    -41.965  0.0000E+00  0.2000E+01
    -41.943  0.0000E+00  0.2000E+01
    -41.922  0.0000E+00  0.2000E+01
    -41.900  0.0000E+00  0.2000E+01
    -41.879  0.0000E+00  0.2000E+01
    -41.857  0.0000E+00  0.2000E+01
    -41.835  0.0000E+00  0.2000E+01
    -41.814  0.0000E+00  0.2000E+01
    -41.792  0.0000E+00  0.2000E+01
    -41.770  0.0000E+00  0.2000E+01
    -41.749  0.0000E+00  0.2000E+01
    -41.727  0.0000E+00  0.2000E+01
    -41.706  0.0000E+00  0.2000E+01
    -41.684  0.0000E+00  0.2000E+01
    -41.662  0.0000E+00  0.2000E+01
    -41.641  0.0000E+00  0.2000E+01
    -41.619  0.0000E+00  0.2000E+01
    -41.597  0.0000E+00  0.2000E+01
    -41.576  0.0000E+00  0.2000E+01
    -41.554  0.0000E+00  0.2000E+01
    -41.533  0.0000E+00  0.2000E+01
    -41.511  0.0000E+00  0.2000E+01
    -41.489  0.0000E+00  0.2000E+01
    -41.468  0.0000E+00  0.2000E+01
    -41.446  0.0000E+00  0.2000E+01
    -41.424  0.0000E+00  0.2000E+01
    -41.403  0.0000E+00  0.2000E+01
    -41.381  0.0000E+00  0.2000E+01
    -41.360  0.0000E+00  0.2000E+01
    -41.338  0.0000E+00  0.2000E+01
    -41.316  0.0000E+00  0.2000E+01
    -41.295  0.0000E+00  0.2000E+01
    -41.273  0.0000E+00  0.2000E+01
    -41.251  0.0000E+00  0.2000E+01
    -41.230  0.0000E+00  0.2000E+01
    -41.208  0.0000E+00  0.2000E+01
    -41.187  0.0000E+00  0.2000E+01
    -41.165  0.0000E+00  0.2000E+01
    -41.143  0.0000E+00  0.2000E+01
    -41.122  0.0000E+00  0.2000E+01
    -41.100  0.0000E+00  0.2000E+01
    -41.078  0.0000E+00  0.2000E+01
    -41.057  0.0000E+00  0.2000E+01
    -41.035  0.0000E+00  0.2000E+01
    -41.014  0.0000E+00  0.2000E+01
    -40.992  0.0000E+00  0.2000E+01
    -40.970  0.0000E+00  0.2000E+01
    -40.949  0.0000E+00  0.2000E+01
    -40.927  0.0000E+00  0.2000E+01
    -40.905  0.0000E+00  0.2000E+01
    -40.884  0.0000E+00  0.2000E+01
    -40.862  0.0000E+00  0.2000E+01
    -40.841  0.0000E+00  0.2000E+01
    -40.819  0.0000E+00  0.2000E+01
    -40.797  0.0000E+00  0.2000E+01
    -40.776  0.0000E+00  0.2000E+01
    -40.754  0.0000E+00  0.2000E+01
    -40.732  0.0000E+00  0.2000E+01
    -40.711  0.0000E+00  0.2000E+01
    -40.689  0.0000E+00  0.2000E+01
    -40.667  0.0000E+00  0.2000E+01
    -40.646  0.0000E+00  0.2000E+01
    -40.624  0.0000E+00  0.2000E+01
    -40.603  0.0000E+00  0.2000E+01
    -40.581  0.0000E+00  0.2000E+01
    -40.559  0.0000E+00  0.2000E+01
    -40.538  0.0000E+00  0.2000E+01
    -40.516  0.0000E+00  0.2000E+01
    -40.494  0.0000E+00  0.2000E+01
    -40.473  0.0000E+00  0.2000E+01
    -40.451  0.0000E+00  0.2000E+01
    -40.430  0.0000E+00  0.2000E+01
    -40.408  0.0000E+00  0.2000E+01
    -40.386  0.0000E+00  0.2000E+01
    -40.365  0.0000E+00  0.2000E+01
    -40.343  0.0000E+00  0.2000E+01
    -40.321  0.0000E+00  0.2000E+01
    -40.300  0.0000E+00  0.2000E+01
    -40.278  0.0000E+00  0.2000E+01
    -40.257  0.0000E+00  0.2000E+01
    -40.235  0.0000E+00  0.2000E+01
    -40.213  0.0000E+00  0.2000E+01
    -40.192  0.0000E+00  0.2000E+01
    -40.170  0.0000E+00  0.2000E+01
    -40.148  0.0000E+00  0.2000E+01
    -40.127  0.0000E+00  0.2000E+01
    -40.105  0.0000E+00  0.2000E+01
    -40.084  0.0000E+00  0.2000E+01
    -40.062  0.0000E+00  0.2000E+01
    -40.040  0.0000E+00  0.2000E+01
    -40.019  0.0000E+00  0.2000E+01
    -39.997  0.0000E+00  0.2000E+01
    -39.975  0.0000E+00  0.2000E+01
    -39.954  0.0000E+00  0.2000E+01
    -39.932  0.0000E+00  0.2000E+01
    -39.911  0.0000E+00  0.2000E+01
    -39.889  0.0000E+00  0.2000E+01
    -39.867  0.0000E+00  0.2000E+01
    -39.846  0.0000E+00  0.2000E+01
    -39.824  0.0000E+00  0.2000E+01
    -39.802  0.0000E+00  0.2000E+01
    -39.781  0.0000E+00  0.2000E+01
    -39.759  0.0000E+00  0.2000E+01
    -39.738  0.0000E+00  0.2000E+01
    -39.716  0.0000E+00  0.2000E+01
    -39.694  0.0000E+00  0.2000E+01
    -39.673  0.0000E+00  0.2000E+01
    -39.651  0.0000E+00  0.2000E+01
    -39.629  0.0000E+00  0.2000E+01
    -39.608  0.0000E+00  0.2000E+01
    -39.586  0.0000E+00  0.2000E+01
    -39.565  0.0000E+00  0.2000E+01
    -39.543  0.0000E+00  0.2000E+01
    -39.521  0.0000E+00  0.2000E+01
    -39.500  0.0000E+00  0.2000E+01
    -39.478  0.0000E+00  0.2000E+01
    -39.456  0.0000E+00  0.2000E+01
    -39.435  0.0000E+00  0.2000E+01
    -39.413  0.0000E+00  0.2000E+01
    -39.392  0.0000E+00  0.2000E+01
    -39.370  0.0000E+00  0.2000E+01
    -39.348  0.0000E+00  0.2000E+01
    -39.327  0.0000E+00  0.2000E+01
    -39.305  0.0000E+00  0.2000E+01
    -39.283  0.0000E+00  0.2000E+01
    -39.262  0.0000E+00  0.2000E+01
    -39.240  0.0000E+00  0.2000E+01
    -39.219  0.0000E+00  0.2000E+01
    -39.197  0.0000E+00  0.2000E+01
    -39.175  0.0000E+00  0.2000E+01
    -39.154  0.0000E+00  0.2000E+01
    -39.132  0.0000E+00  0.2000E+01
    -39.110  0.0000E+00  0.2000E+01
    -39.089  0.0000E+00  0.2000E+01
    -39.067  0.0000E+00  0.2000E+01
    -39.045  0.0000E+00  0.2000E+01
    -39.024  0.0000E+00  0.2000E+01
    -39.002  0.0000E+00  0.2000E+01
    -38.981  0.0000E+00  0.2000E+01
    -38.959  0.0000E+00  0.2000E+01
    -38.937  0.0000E+00  0.2000E+01
    -38.916  0.0000E+00  0.2000E+01
    -38.894  0.0000E+00  0.2000E+01
    -38.872  0.0000E+00  0.2000E+01
    -38.851  0.0000E+00  0.2000E+01
    -38.829  0.0000E+00  0.2000E+01
    -38.808  0.0000E+00  0.2000E+01
    -38.786  0.0000E+00  0.2000E+01
    -38.764  0.0000E+00  0.2000E+01
    -38.743  0.0000E+00  0.2000E+01
    -38.721  0.0000E+00  0.2000E+01
    -38.699  0.0000E+00  0.2000E+01
    -38.678  0.0000E+00  0.2000E+01
    -38.656  0.0000E+00  0.2000E+01
    -38.635  0.0000E+00  0.2000E+01
    -38.613  0.0000E+00  0.2000E+01
    -38.591  0.0000E+00  0.2000E+01
    -38.570  0.0000E+00  0.2000E+01
    -38.548  0.0000E+00  0.2000E+01
    -38.526  0.0000E+00  0.2000E+01
    -38.505  0.0000E+00  0.2000E+01
    -38.483  0.0000E+00  0.2000E+01
    -38.462  0.0000E+00  0.2000E+01
    -38.440  0.0000E+00  0.2000E+01
    -38.418  0.0000E+00  0.2000E+01
    -38.397  0.0000E+00  0.2000E+01
    -38.375  0.0000E+00  0.2000E+01
    -38.353  0.0000E+00  0.2000E+01
    -38.332  0.0000E+00  0.2000E+01
    -38.310  0.0000E+00  0.2000E+01
    -38.289  0.0000E+00  0.2000E+01
    -38.267  0.0000E+00  0.2000E+01
    -38.245  0.0000E+00  0.2000E+01
    -38.224  0.0000E+00  0.2000E+01
    -38.202  0.0000E+00  0.2000E+01
    -38.180  0.0000E+00  0.2000E+01
    -38.159  0.0000E+00  0.2000E+01
    -38.137  0.0000E+00  0.2000E+01
    -38.116  0.0000E+00  0.2000E+01
    -38.094  0.0000E+00  0.2000E+01
    -38.072  0.0000E+00  0.2000E+01
    -38.051  0.0000E+00  0.2000E+01
    -38.029  0.0000E+00  0.2000E+01
    -38.007  0.0000E+00  0.2000E+01
    -37.986  0.0000E+00  0.2000E+01
    -37.964  0.0000E+00  0.2000E+01
    -37.943  0.0000E+00  0.2000E+01
    -37.921  0.0000E+00  0.2000E+01
    -37.899  0.0000E+00  0.2000E+01
    -37.878  0.0000E+00  0.2000E+01
    -37.856  0.0000E+00  0.2000E+01
    -37.834  0.0000E+00  0.2000E+01
    -37.813  0.0000E+00  0.2000E+01
    -37.791  0.0000E+00  0.2000E+01
    -37.770  0.0000E+00  0.2000E+01
    -37.748  0.0000E+00  0.2000E+01
    -37.726  0.0000E+00  0.2000E+01
    -37.705  0.0000E+00  0.2000E+01
    -37.683  0.0000E+00  0.2000E+01
    -37.661  0.0000E+00  0.2000E+01
    -37.640  0.0000E+00  0.2000E+01
    -37.618  0.0000E+00  0.2000E+01
    -37.596  0.0000E+00  0.2000E+01
    -37.575  0.0000E+00  0.2000E+01
    -37.553  0.0000E+00  0.2000E+01
    -37.532  0.0000E+00  0.2000E+01
    -37.510  0.0000E+00  0.2000E+01
    -37.488  0.0000E+00  0.2000E+01
    -37.467  0.0000E+00  0.2000E+01
    -37.445  0.0000E+00  0.2000E+01
    -37.423  0.0000E+00  0.2000E+01
    -37.402  0.0000E+00  0.2000E+01
    -37.380  0.0000E+00  0.2000E+01
    -37.359  0.0000E+00  0.2000E+01
    -37.337  0.0000E+00  0.2000E+01
    -37.315  0.0000E+00  0.2000E+01
    -37.294  0.0000E+00  0.2000E+01
    -37.272  0.0000E+00  0.2000E+01
    -37.250  0.0000E+00  0.2000E+01
    -37.229  0.0000E+00  0.2000E+01
    -37.207  0.0000E+00  0.2000E+01
    -37.186  0.0000E+00  0.2000E+01
    -37.164  0.0000E+00  0.2000E+01
    -37.142  0.0000E+00  0.2000E+01
    -37.121  0.0000E+00  0.2000E+01
    -37.099  0.0000E+00  0.2000E+01
    -37.077  0.0000E+00  0.2000E+01
    -37.056  0.0000E+00  0.2000E+01
    -37.034  0.0000E+00  0.2000E+01
    -37.013  0.0000E+00  0.2000E+01
    -36.991  0.0000E+00  0.2000E+01
    -36.969  0.0000E+00  0.2000E+01
    -36.948  0.0000E+00  0.2000E+01
    -36.926  0.0000E+00  0.2000E+01
    -36.904  0.0000E+00  0.2000E+01
    -36.883  0.0000E+00  0.2000E+01
    -36.861  0.0000E+00  0.2000E+01
    -36.840  0.0000E+00  0.2000E+01
    -36.818  0.0000E+00  0.2000E+01
    -36.796  0.0000E+00  0.2000E+01
    -36.775  0.0000E+00  0.2000E+01
    -36.753  0.0000E+00  0.2000E+01
    -36.731  0.0000E+00  0.2000E+01
    -36.710  0.0000E+00  0.2000E+01
    -36.688  0.0000E+00  0.2000E+01
    -36.667  0.0000E+00  0.2000E+01
    -36.645  0.0000E+00  0.2000E+01
    -36.623  0.0000E+00  0.2000E+01
    -36.602  0.0000E+00  0.2000E+01
    -36.580  0.0000E+00  0.2000E+01
    -36.558  0.0000E+00  0.2000E+01
    -36.537  0.0000E+00  0.2000E+01
    -36.515  0.0000E+00  0.2000E+01
    -36.494  0.0000E+00  0.2000E+01
    -36.472  0.0000E+00  0.2000E+01
    -36.450  0.0000E+00  0.2000E+01
    -36.429  0.0000E+00  0.2000E+01
    -36.407  0.0000E+00  0.2000E+01
    -36.385  0.0000E+00  0.2000E+01
    -36.364  0.0000E+00  0.2000E+01
    -36.342  0.0000E+00  0.2000E+01
    -36.321  0.0000E+00  0.2000E+01
    -36.299  0.0000E+00  0.2000E+01
    -36.277  0.0000E+00  0.2000E+01
    -36.256  0.0000E+00  0.2000E+01
    -36.234  0.0000E+00  0.2000E+01
    -36.212  0.0000E+00  0.2000E+01
    -36.191  0.0000E+00  0.2000E+01
    -36.169  0.0000E+00  0.2000E+01
    -36.148  0.0000E+00  0.2000E+01
    -36.126  0.0000E+00  0.2000E+01
    -36.104  0.0000E+00  0.2000E+01
    -36.083  0.0000E+00  0.2000E+01
    -36.061  0.0000E+00  0.2000E+01
    -36.039  0.0000E+00  0.2000E+01
    -36.018  0.0000E+00  0.2000E+01
    -35.996  0.0000E+00  0.2000E+01
    -35.974  0.0000E+00  0.2000E+01
    -35.953  0.0000E+00  0.2000E+01
    -35.931  0.0000E+00  0.2000E+01
    -35.910  0.0000E+00  0.2000E+01
    -35.888  0.0000E+00  0.2000E+01
    -35.866  0.0000E+00  0.2000E+01
    -35.845  0.0000E+00  0.2000E+01
    -35.823  0.0000E+00  0.2000E+01
    -35.801  0.0000E+00  0.2000E+01
    -35.780  0.0000E+00  0.2000E+01
    -35.758  0.0000E+00  0.2000E+01
    -35.737  0.0000E+00  0.2000E+01
    -35.715  0.0000E+00  0.2000E+01
    -35.693  0.0000E+00  0.2000E+01
    -35.672  0.0000E+00  0.2000E+01
    -35.650  0.0000E+00  0.2000E+01
    -35.628  0.0000E+00  0.2000E+01
    -35.607  0.0000E+00  0.2000E+01
    -35.585  0.0000E+00  0.2000E+01
    -35.564  0.0000E+00  0.2000E+01
    -35.542  0.0000E+00  0.2000E+01
    -35.520  0.0000E+00  0.2000E+01
    -35.499  0.0000E+00  0.2000E+01
    -35.477  0.0000E+00  0.2000E+01
    -35.455  0.0000E+00  0.2000E+01
    -35.434  0.0000E+00  0.2000E+01
    -35.412  0.0000E+00  0.2000E+01
    -35.391  0.0000E+00  0.2000E+01
    -35.369  0.0000E+00  0.2000E+01
    -35.347  0.0000E+00  0.2000E+01
    -35.326  0.0000E+00  0.2000E+01
    -35.304  0.0000E+00  0.2000E+01
    -35.282  0.0000E+00  0.2000E+01
    -35.261  0.0000E+00  0.2000E+01
    -35.239  0.0000E+00  0.2000E+01
    -35.218  0.0000E+00  0.2000E+01
    -35.196  0.0000E+00  0.2000E+01
    -35.174  0.0000E+00  0.2000E+01
    -35.153  0.0000E+00  0.2000E+01
    -35.131  0.0000E+00  0.2000E+01
    -35.109  0.0000E+00  0.2000E+01
    -35.088  0.0000E+00  0.2000E+01
    -35.066  0.0000E+00  0.2000E+01
    -35.045  0.0000E+00  0.2000E+01
    -35.023  0.0000E+00  0.2000E+01
    -35.001  0.0000E+00  0.2000E+01
    -34.980  0.0000E+00  0.2000E+01
    -34.958  0.0000E+00  0.2000E+01
    -34.936  0.0000E+00  0.2000E+01
    -34.915  0.0000E+00  0.2000E+01
    -34.893  0.0000E+00  0.2000E+01
    -34.872  0.0000E+00  0.2000E+01
    -34.850  0.0000E+00  0.2000E+01
    -34.828  0.0000E+00  0.2000E+01
    -34.807  0.0000E+00  0.2000E+01
    -34.785  0.0000E+00  0.2000E+01
    -34.763  0.0000E+00  0.2000E+01
    -34.742  0.0000E+00  0.2000E+01
    -34.720  0.0000E+00  0.2000E+01
    -34.699  0.0000E+00  0.2000E+01
    -34.677  0.0000E+00  0.2000E+01
    -34.655  0.0000E+00  0.2000E+01
    -34.634  0.0000E+00  0.2000E+01
    -34.612  0.0000E+00  0.2000E+01
    -34.590  0.0000E+00  0.2000E+01
    -34.569  0.0000E+00  0.2000E+01
    -34.547  0.0000E+00  0.2000E+01
    -34.525  0.0000E+00  0.2000E+01
    -34.504  0.0000E+00  0.2000E+01
    -34.482  0.0000E+00  0.2000E+01
    -34.461  0.0000E+00  0.2000E+01
    -34.439  0.0000E+00  0.2000E+01
    -34.417  0.0000E+00  0.2000E+01
    -34.396  0.0000E+00  0.2000E+01
    -34.374  0.0000E+00  0.2000E+01
    -34.352  0.0000E+00  0.2000E+01
    -34.331  0.0000E+00  0.2000E+01
    -34.309  0.0000E+00  0.2000E+01
    -34.288  0.0000E+00  0.2000E+01
    -34.266  0.0000E+00  0.2000E+01
    -34.244  0.0000E+00  0.2000E+01
    -34.223  0.0000E+00  0.2000E+01
    -34.201  0.0000E+00  0.2000E+01
    -34.179  0.0000E+00  0.2000E+01
    -34.158  0.0000E+00  0.2000E+01
    -34.136  0.0000E+00  0.2000E+01
    -34.115  0.0000E+00  0.2000E+01
    -34.093  0.0000E+00  0.2000E+01
    -34.071  0.0000E+00  0.2000E+01
    -34.050  0.0000E+00  0.2000E+01
    -34.028  0.0000E+00  0.2000E+01
    -34.006  0.0000E+00  0.2000E+01
    -33.985  0.0000E+00  0.2000E+01
    -33.963  0.0000E+00  0.2000E+01
    -33.942  0.0000E+00  0.2000E+01
    -33.920  0.0000E+00  0.2000E+01
    -33.898  0.0000E+00  0.2000E+01
    -33.877  0.0000E+00  0.2000E+01
    -33.855  0.0000E+00  0.2000E+01
    -33.833  0.0000E+00  0.2000E+01
    -33.812  0.0000E+00  0.2000E+01
    -33.790  0.0000E+00  0.2000E+01
    -33.769  0.0000E+00  0.2000E+01
    -33.747  0.0000E+00  0.2000E+01
    -33.725  0.0000E+00  0.2000E+01
    -33.704  0.0000E+00  0.2000E+01
    -33.682  0.0000E+00  0.2000E+01
    -33.660  0.0000E+00  0.2000E+01
    -33.639  0.0000E+00  0.2000E+01
    -33.617  0.0000E+00  0.2000E+01
    -33.596  0.0000E+00  0.2000E+01
    -33.574  0.0000E+00  0.2000E+01
    -33.552  0.0000E+00  0.2000E+01
    -33.531  0.0000E+00  0.2000E+01
    -33.509  0.0000E+00  0.2000E+01
    -33.487  0.0000E+00  0.2000E+01
    -33.466  0.0000E+00  0.2000E+01
    -33.444  0.0000E+00  0.2000E+01
    -33.423  0.0000E+00  0.2000E+01
    -33.401  0.0000E+00  0.2000E+01
    -33.379  0.0000E+00  0.2000E+01
    -33.358  0.0000E+00  0.2000E+01
    -33.336  0.0000E+00  0.2000E+01
    -33.314  0.0000E+00  0.2000E+01
    -33.293  0.0000E+00  0.2000E+01
    -33.271  0.0000E+00  0.2000E+01
    -33.250  0.0000E+00  0.2000E+01
    -33.228  0.0000E+00  0.2000E+01
    -33.206  0.0000E+00  0.2000E+01
    -33.185  0.0000E+00  0.2000E+01
    -33.163  0.0000E+00  0.2000E+01
    -33.141  0.0000E+00  0.2000E+01
    -33.120  0.0000E+00  0.2000E+01
    -33.098  0.0000E+00  0.2000E+01
    -33.077  0.0000E+00  0.2000E+01
    -33.055  0.0000E+00  0.2000E+01
    -33.033  0.0000E+00  0.2000E+01
    -33.012  0.0000E+00  0.2000E+01
    -32.990  0.0000E+00  0.2000E+01
    -32.968  0.0000E+00  0.2000E+01
    -32.947  0.0000E+00  0.2000E+01
    -32.925  0.0000E+00  0.2000E+01
    -32.903  0.0000E+00  0.2000E+01
    -32.882  0.0000E+00  0.2000E+01
    -32.860  0.0000E+00  0.2000E+01
    -32.839  0.0000E+00  0.2000E+01
    -32.817  0.0000E+00  0.2000E+01
    -32.795  0.0000E+00  0.2000E+01
    -32.774  0.0000E+00  0.2000E+01
    -32.752  0.0000E+00  0.2000E+01
    -32.730  0.0000E+00  0.2000E+01
    -32.709  0.0000E+00  0.2000E+01
    -32.687  0.0000E+00  0.2000E+01
    -32.666  0.0000E+00  0.2000E+01
    -32.644  0.0000E+00  0.2000E+01
    -32.622  0.0000E+00  0.2000E+01
    -32.601  0.0000E+00  0.2000E+01
    -32.579  0.0000E+00  0.2000E+01
    -32.557  0.0000E+00  0.2000E+01
    -32.536  0.0000E+00  0.2000E+01
    -32.514  0.0000E+00  0.2000E+01
    -32.493  0.0000E+00  0.2000E+01
    -32.471  0.0000E+00  0.2000E+01
    -32.449  0.0000E+00  0.2000E+01
    -32.428  0.0000E+00  0.2000E+01
    -32.406  0.0000E+00  0.2000E+01
    -32.384  0.0000E+00  0.2000E+01
    -32.363  0.0000E+00  0.2000E+01
    -32.341  0.0000E+00  0.2000E+01
    -32.320  0.0000E+00  0.2000E+01
    -32.298  0.0000E+00  0.2000E+01
    -32.276  0.0000E+00  0.2000E+01
    -32.255  0.0000E+00  0.2000E+01
    -32.233  0.0000E+00  0.2000E+01
    -32.211  0.0000E+00  0.2000E+01
    -32.190  0.0000E+00  0.2000E+01
    -32.168  0.0000E+00  0.2000E+01
    -32.147  0.0000E+00  0.2000E+01
    -32.125  0.0000E+00  0.2000E+01
    -32.103  0.0000E+00  0.2000E+01
    -32.082  0.0000E+00  0.2000E+01
    -32.060  0.0000E+00  0.2000E+01
    -32.038  0.0000E+00  0.2000E+01
    -32.017  0.0000E+00  0.2000E+01
    -31.995  0.0000E+00  0.2000E+01
    -31.974  0.0000E+00  0.2000E+01
    -31.952  0.0000E+00  0.2000E+01
    -31.930  0.0000E+00  0.2000E+01
    -31.909  0.0000E+00  0.2000E+01
    -31.887  0.0000E+00  0.2000E+01
    -31.865  0.0000E+00  0.2000E+01
    -31.844  0.0000E+00  0.2000E+01
    -31.822  0.0000E+00  0.2000E+01
    -31.801  0.0000E+00  0.2000E+01
    -31.779  0.0000E+00  0.2000E+01
    -31.757  0.0000E+00  0.2000E+01
    -31.736  0.0000E+00  0.2000E+01
    -31.714  0.0000E+00  0.2000E+01
    -31.692  0.0000E+00  0.2000E+01
    -31.671  0.0000E+00  0.2000E+01
    -31.649  0.0000E+00  0.2000E+01
    -31.628  0.0000E+00  0.2000E+01
    -31.606  0.0000E+00  0.2000E+01
    -31.584  0.0000E+00  0.2000E+01
    -31.563  0.0000E+00  0.2000E+01
    -31.541  0.0000E+00  0.2000E+01
    -31.519  0.0000E+00  0.2000E+01
    -31.498  0.0000E+00  0.2000E+01
    -31.476  0.0000E+00  0.2000E+01
    -31.454  0.0000E+00  0.2000E+01
    -31.433  0.0000E+00  0.2000E+01
    -31.411  0.0000E+00  0.2000E+01
    -31.390  0.0000E+00  0.2000E+01
    -31.368  0.0000E+00  0.2000E+01
    -31.346  0.0000E+00  0.2000E+01
    -31.325  0.0000E+00  0.2000E+01
    -31.303  0.0000E+00  0.2000E+01
    -31.281  0.0000E+00  0.2000E+01
    -31.260  0.0000E+00  0.2000E+01
    -31.238  0.0000E+00  0.2000E+01
    -31.217  0.0000E+00  0.2000E+01
    -31.195  0.0000E+00  0.2000E+01
    -31.173  0.0000E+00  0.2000E+01
    -31.152  0.0000E+00  0.2000E+01
    -31.130  0.0000E+00  0.2000E+01
    -31.108  0.0000E+00  0.2000E+01
    -31.087  0.0000E+00  0.2000E+01
    -31.065  0.0000E+00  0.2000E+01
    -31.044  0.0000E+00  0.2000E+01
    -31.022  0.0000E+00  0.2000E+01
    -31.000  0.0000E+00  0.2000E+01
    -30.979  0.0000E+00  0.2000E+01
    -30.957  0.0000E+00  0.2000E+01
    -30.935  0.0000E+00  0.2000E+01
    -30.914  0.0000E+00  0.2000E+01
    -30.892  0.0000E+00  0.2000E+01
    -30.871  0.0000E+00  0.2000E+01
    -30.849  0.0000E+00  0.2000E+01
    -30.827  0.0000E+00  0.2000E+01
    -30.806  0.0000E+00  0.2000E+01
    -30.784  0.0000E+00  0.2000E+01
    -30.762  0.0000E+00  0.2000E+01
    -30.741  0.0000E+00  0.2000E+01
    -30.719  0.0000E+00  0.2000E+01
    -30.698  0.0000E+00  0.2000E+01
    -30.676  0.0000E+00  0.2000E+01
    -30.654  0.0000E+00  0.2000E+01
    -30.633  0.0000E+00  0.2000E+01
    -30.611  0.0000E+00  0.2000E+01
    -30.589  0.0000E+00  0.2000E+01
    -30.568  0.0000E+00  0.2000E+01
    -30.546  0.0000E+00  0.2000E+01
    -30.525  0.0000E+00  0.2000E+01
    -30.503  0.0000E+00  0.2000E+01
    -30.481  0.0000E+00  0.2000E+01
    -30.460  0.0000E+00  0.2000E+01
    -30.438  0.0000E+00  0.2000E+01
    -30.416  0.0000E+00  0.2000E+01
    -30.395  0.0000E+00  0.2000E+01
    -30.373  0.0000E+00  0.2000E+01
    -30.352  0.0000E+00  0.2000E+01
    -30.330  0.0000E+00  0.2000E+01
    -30.308  0.0000E+00  0.2000E+01
    -30.287  0.0000E+00  0.2000E+01
    -30.265  0.0000E+00  0.2000E+01
    -30.243  0.0000E+00  0.2000E+01
    -30.222  0.0000E+00  0.2000E+01
    -30.200  0.0000E+00  0.2000E+01
    -30.179  0.0000E+00  0.2000E+01
    -30.157  0.0000E+00  0.2000E+01
    -30.135  0.0000E+00  0.2000E+01
    -30.114  0.0000E+00  0.2000E+01
    -30.092  0.0000E+00  0.2000E+01
    -30.070  0.0000E+00  0.2000E+01
    -30.049  0.0000E+00  0.2000E+01
    -30.027  0.0000E+00  0.2000E+01
    -30.005  0.0000E+00  0.2000E+01
    -29.984  0.0000E+00  0.2000E+01
    -29.962  0.0000E+00  0.2000E+01
    -29.941  0.0000E+00  0.2000E+01
    -29.919  0.0000E+00  0.2000E+01
    -29.897  0.0000E+00  0.2000E+01
    -29.876  0.0000E+00  0.2000E+01
    -29.854  0.0000E+00  0.2000E+01
    -29.832  0.0000E+00  0.2000E+01
    -29.811  0.0000E+00  0.2000E+01
    -29.789  0.0000E+00  0.2000E+01
    -29.768  0.0000E+00  0.2000E+01
    -29.746  0.0000E+00  0.2000E+01
    -29.724  0.0000E+00  0.2000E+01
    -29.703  0.0000E+00  0.2000E+01
    -29.681  0.0000E+00  0.2000E+01
    -29.659  0.0000E+00  0.2000E+01
    -29.638  0.0000E+00  0.2000E+01
    -29.616  0.0000E+00  0.2000E+01
    -29.595  0.0000E+00  0.2000E+01
    -29.573  0.0000E+00  0.2000E+01
    -29.551  0.0000E+00  0.2000E+01
    -29.530  0.0000E+00  0.2000E+01
    -29.508  0.0000E+00  0.2000E+01
    -29.486  0.0000E+00  0.2000E+01
    -29.465  0.0000E+00  0.2000E+01
    -29.443  0.0000E+00  0.2000E+01
    -29.422  0.0000E+00  0.2000E+01
    -29.400  0.0000E+00  0.2000E+01
    -29.378  0.0000E+00  0.2000E+01
    -29.357  0.0000E+00  0.2000E+01
    -29.335  0.0000E+00  0.2000E+01
    -29.313  0.0000E+00  0.2000E+01
    -29.292  0.0000E+00  0.2000E+01
    -29.270  0.0000E+00  0.2000E+01
    -29.249  0.0000E+00  0.2000E+01
    -29.227  0.0000E+00  0.2000E+01
    -29.205  0.0000E+00  0.2000E+01
    -29.184  0.0000E+00  0.2000E+01
    -29.162  0.0000E+00  0.2000E+01
    -29.140  0.0000E+00  0.2000E+01
    -29.119  0.0000E+00  0.2000E+01
    -29.097  0.0000E+00  0.2000E+01
    -29.076  0.0000E+00  0.2000E+01
    -29.054  0.0000E+00  0.2000E+01
    -29.032  0.0000E+00  0.2000E+01
    -29.011  0.0000E+00  0.2000E+01
    -28.989  0.0000E+00  0.2000E+01
    -28.967  0.0000E+00  0.2000E+01
    -28.946  0.0000E+00  0.2000E+01
    -28.924  0.0000E+00  0.2000E+01
    -28.903  0.0000E+00  0.2000E+01
    -28.881  0.0000E+00  0.2000E+01
    -28.859  0.0000E+00  0.2000E+01
    -28.838  0.0000E+00  0.2000E+01
    -28.816  0.0000E+00  0.2000E+01
    -28.794  0.0000E+00  0.2000E+01
    -28.773  0.0000E+00  0.2000E+01
    -28.751  0.0000E+00  0.2000E+01
    -28.730  0.0000E+00  0.2000E+01
    -28.708  0.0000E+00  0.2000E+01
    -28.686  0.0000E+00  0.2000E+01
    -28.665  0.0000E+00  0.2000E+01
    -28.643  0.0000E+00  0.2000E+01
    -28.621  0.0000E+00  0.2000E+01
    -28.600  0.0000E+00  0.2000E+01
    -28.578  0.0000E+00  0.2000E+01
    -28.557  0.0000E+00  0.2000E+01
    -28.535  0.0000E+00  0.2000E+01
    -28.513  0.0000E+00  0.2000E+01
    -28.492  0.0000E+00  0.2000E+01
    -28.470  0.0000E+00  0.2000E+01
    -28.448  0.0000E+00  0.2000E+01
    -28.427  0.0000E+00  0.2000E+01
    -28.405  0.0000E+00  0.2000E+01
    -28.383  0.0000E+00  0.2000E+01
    -28.362  0.0000E+00  0.2000E+01
    -28.340  0.0000E+00  0.2000E+01
    -28.319  0.0000E+00  0.2000E+01
    -28.297  0.0000E+00  0.2000E+01
    -28.275  0.0000E+00  0.2000E+01
    -28.254  0.0000E+00  0.2000E+01
    -28.232  0.0000E+00  0.2000E+01
    -28.210  0.0000E+00  0.2000E+01