   2    2    1    1
  1.6701620e+01   2.8691830e-10   2.8691830e-10   2.8691831e-10   5.0000000e-16
            1.000000e-04
  CAR
 DOS and projected DOS file by LOBSTER. Energy is shifted such that the Fermi level lies at 0 eV. 
      3.91710799     -36.13295459   801      -1.08914983       1.00000000
-35.04380   0.00000   1.99660
-34.99374   0.00000   1.99660
-34.94368   0.00000   1.99660
-34.89362   0.00000   1.99660
-34.84355   0.00000   1.99660
-34.79349   0.00000   1.99660
-34.74343   0.00000   1.99660
-34.69337   0.00000   1.99660
-34.64330   0.00000   1.99660
-34.59324   0.00000   1.99660
-34.54318   0.00000   1.99660
-34.49312   0.00000   1.99660
-34.44305   0.00000   1.99660
-34.39299   0.00000   1.99660
-34.34293   0.00000   1.99660
-34.29287   0.00000   1.99660
-34.24280   0.00000   1.99660
-34.19274   0.00000   1.99660
-34.14268   0.00000   1.99660
-34.09262   0.00000   1.99660
-34.04255   0.00000   1.99660
-33.99249   0.00000   1.99660
-33.94243   0.00000   1.99660
-33.89237   0.00000   1.99660
-33.84230   0.00000   1.99660
-33.79224   0.00000   1.99660
-33.74218   0.00000   1.99660
-33.69212   0.00000   1.99660
-33.64205   0.00000   1.99660
-33.59199   0.00000   1.99660
-33.54193   0.00000   1.99660
-33.49186   0.00000   1.99660
-33.44180   0.00000   1.99660
-33.39174   0.00000   1.99660
-33.34168   0.00000   1.99660
-33.29161   0.00000   1.99660
-33.24155   0.00000   1.99660
-33.19149   0.00000   1.99660
-33.14143   0.00000   1.99660
-33.09136   0.00000   1.99660
-33.04130   0.00000   1.99660
-32.99124   0.00000   1.99660
-32.94118   0.00000   1.99660
-32.89111   0.00000   1.99660
-32.84105   0.00000   1.99660
-32.79099   0.00000   1.99660
-32.74093   0.00000   1.99660
-32.69086   0.00000   1.99660
-32.64080   0.00000   1.99660
-32.59074   0.00000   1.99660
-32.54068   0.00000   1.99660
-32.49061   0.00000   1.99660
-32.44055   0.00000   1.99660
-32.39049   0.00000   1.99660
-32.34043   0.00000   1.99660
-32.29036   0.00000   1.99660
-32.24030   0.00000   1.99660
-32.19024   0.00000   1.99660
-32.14018   0.00000   1.99660
-32.09011   0.00000   1.99660
-32.04005   0.00000   1.99660
-31.98999   0.00000   1.99660
-31.93992   0.00000   1.99660
-31.88986   0.00000   1.99660
-31.83980   0.00000   1.99660
-31.78974   0.00000   1.99660
-31.73967   0.00000   1.99660
-31.68961   0.00000   1.99660
-31.63955   0.00000   1.99660
-31.58949   0.00000   1.99660
-31.53942   0.00000   1.99660
-31.48936   0.00000   1.99660
-31.43930   0.00000   1.99660
-31.38924   0.00000   1.99660
-31.33917   0.00000   1.99660
-31.28911   0.00000   1.99660
-31.23905   0.00000   1.99660
-31.18899   0.00000   1.99660
-31.13892   0.00000   1.99660
-31.08886   0.00000   1.99660
-31.03880   0.00000   1.99660
-30.98874   0.00000   1.99660
-30.93867   0.00000   1.99660
-30.88861   0.00000   1.99660
-30.83855   0.00000   1.99660
-30.78849   0.00000   1.99660
-30.73842   0.00000   1.99660
-30.68836   0.00000   1.99660
-30.63830   0.00000   1.99660
-30.58824   0.00000   1.99660
-30.53817   0.00000   1.99660
-30.48811   0.00000   1.99660
-30.43805   0.00000   1.99660
-30.38798   0.00000   1.99660
-30.33792   0.00000   1.99660
-30.28786   0.00000   1.99660
-30.23780   0.00000   1.99660
-30.18773   0.00000   1.99660
-30.13767   0.00000   1.99660
-30.08761   0.00000   1.99660
-30.03755   0.00000   1.99660
-29.98748   0.00000   1.99660
-29.93742   0.00000   1.99660
-29.88736   0.00000   1.99660
-29.83730   0.00000   1.99660
-29.78723   0.00000   1.99660
-29.73717   0.00000   1.99660
-29.68711   0.00000   1.99660
-29.63705   0.00000   1.99660
-29.58698   0.00000   1.99660
-29.53692   0.00000   1.99660
-29.48686   0.00000   1.99660
-29.43680   0.00000   1.99660
-29.38673   0.00000   1.99660
-29.33667   0.00000   1.99660
-29.28661   0.00000   1.99660
-29.23655   0.00000   1.99660
-29.18648   0.00000   1.99660
-29.13642   0.00000   1.99660
-29.08636   0.00000   1.99660
-29.03630   0.00000   1.99660
-28.98623   0.00000   1.99660
-28.93617   0.00000   1.99660
-28.88611   0.00000   1.99660
-28.83605   0.00000   1.99660
-28.78598   0.00000   1.99660
-28.73592   0.00000   1.99660
-28.68586   0.00000   1.99660
-28.63579   0.00000   1.99660
-28.58573   0.00000   1.99660
-28.53567   0.00000   1.99660
-28.48561   0.00000   1.99660
-28.43554   0.00000   1.99660
-28.38548   0.00000   1.99660
-28.33542   0.00000   1.99660
-28.28536   0.00000   1.99660
-28.23529   0.00000   1.99660
-28.18523   0.00000   1.99660
-28.13517   0.00000   1.99660
-28.08511   0.00000   1.99660
-28.03504   0.00000   1.99660
-27.98498   0.00000   1.99660
-27.93492   0.00000   1.99660
-27.88486   0.00000   1.99660
-27.83479   0.00000   1.99660
-27.78473   0.00000   1.99660
-27.73467   0.00000   1.99660
-27.68461   0.00000   1.99660
-27.63454   0.00000   1.99660
-27.58448   0.00000   1.99660
-27.53442   0.00000   1.99660
-27.48436   0.00000   1.99660
-27.43429   0.00000   1.99660
-27.38423   0.00000   1.99660
-27.33417   0.00000   1.99660
-27.28411   0.00000   1.99660
-27.23404   0.00000   1.99660
-27.18398   0.00000   1.99660
-27.13392   0.00000   1.99660
-27.08385   0.00000   1.99660
-27.03379   0.00000   1.99660
-26.98373   0.00000   1.99660
-26.93367   0.00000   1.99660
-26.88360   0.00000   1.99660
-26.83354   0.00000   1.99660
-26.78348   0.00000   1.99660
-26.73342   0.00000   1.99660
-26.68335   0.00000   1.99660
-26.63329   0.00000   1.99660
-26.58323   0.00000   1.99660
-26.53317   0.00000   1.99660
-26.48310   0.00000   1.99660
-26.43304   0.00000   1.99660
-26.38298   0.00000   1.99660
-26.33292   0.00000   1.99660
-26.28285   0.00000   1.99660
-26.23279   0.00000   1.99660
-26.18273   0.00000   1.99660
-26.13267   0.00000   1.99660
-26.08260   0.00000   1.99660
-26.03254   0.00000   1.99660
-25.98248   0.00000   1.99660
-25.93242   0.00000   1.99660
-25.88235   0.00000   1.99660
-25.83229   0.00000   1.99660
-25.78223   0.00000   1.99660
-25.73217   0.00000   1.99660
-25.68210   0.00000   1.99660
-25.63204   0.00000   1.99660
-25.58198   0.00000   1.99660
-25.53191   0.00000   1.99660
-25.48185   0.00000   1.99660
-25.43179   0.00000   1.99660
-25.38173   0.00000   1.99660
-25.33166   0.00000   1.99660
-25.28160   0.00000   1.99660
-25.23154   0.00000   1.99660
-25.18148   0.00000   1.99660
-25.13141   0.00000   1.99660
-25.08135   0.00000   1.99660
-25.03129   0.00000   1.99660
-24.98123   0.00000   1.99660
-24.93116   0.00000   1.99660
-24.88110   0.00000   1.99660
-24.83104   0.00000   1.99660
-24.78098   0.00000   1.99660
-24.73091   0.00000   1.99660
-24.68085   0.00000   1.99660
-24.63079   0.00000   1.99660
-24.58073   0.00000   1.99660
-24.53066   0.00000   1.99660
-24.48060   0.00000   1.99660
-24.43054   0.00000   1.99660
-24.38048   0.00000   1.99660
-24.33041   0.00000   1.99660
-24.28035   0.00000   1.99660
-24.23029   0.00000   1.99660
-24.18023   0.00000   1.99660
-24.13016   0.00000   1.99660
-24.08010   0.00000   1.99660
-24.03004   0.00000   1.99660
-23.97997   0.00000   1.99660
-23.92991   0.00000   1.99660
-23.87985   0.00000   1.99660
-23.82979   0.00000   1.99660
-23.77972   0.00000   1.99660
-23.72966   0.00000   1.99660
-23.67960   0.00000   1.99660
-23.62954   0.00000   1.99660
-23.57947   0.00000   1.99660
-23.52941   0.00000   1.99660
-23.47935   0.00000   1.99660
-23.42929   0.00000   1.99660
-23.37922   0.00000   1.99660
-23.32916   0.00000   1.99660
-23.27910   0.00000   1.99660
-23.22904   0.00000   1.99660
-23.17897   0.00000   1.99660
-23.12891   0.00000   1.99660
-23.07885   0.00000   1.99660
-23.02879   0.00000   1.99660
-22.97872   0.00000   1.99660
-22.92866   0.00000   1.99660
-22.87860   0.00000   1.99660
-22.82854   0.00000   1.99660
-22.77847   0.00000   1.99660
-22.72841   0.00000   1.99660
-22.67835   0.00000   1.99660
-22.62829   0.00000   1.99660
-22.57822   0.00000   1.99660
-22.52816   0.00000   1.99660
-22.47810   0.00000   1.99660
-22.42804   0.00000   1.99660
-22.37797   0.00000   1.99660
-22.32791   0.00000   1.99660
-22.27785   0.00000   1.99660
-22.22778   0.00000   1.99660
-22.17772   0.00000   1.99660
-22.12766   0.00000   1.99660
-22.07760   0.00000   1.99660
-22.02753   0.00000   1.99660
-21.97747   0.00000   1.99660
-21.92741   0.00000   1.99660
-21.87735   0.00000   1.99660
-21.82728   0.00000   1.99660
-21.77722   0.00000   1.99660
-21.72716   0.00000   1.99660
-21.67710   0.00000   1.99660
-21.62703   0.00000   1.99660
-21.57697   0.00000   1.99660
-21.52691   0.00000   1.99660
-21.47685   0.00000   1.99660
-21.42678   0.00000   1.99660
-21.37672   0.00000   1.99660
-21.32666   0.00000   1.99660
-21.27660   0.00000   1.99660
-21.22653   0.00000   1.99660
-21.17647   0.00000   1.99660
-21.12641   0.00000   1.99660
-21.07635   0.00000   1.99660
-21.02628   0.00000   1.99660
-20.97622   0.00000   1.99660
-20.92616   0.00000   1.99660
-20.87610   0.00000   1.99660
-20.82603   0.00000   1.99660
-20.77597   0.00000   1.99660
-20.72591   0.00000   1.99660
-20.67584   0.00000   1.99660
-20.62578   0.00000   1.99660
-20.57572   0.00000   1.99660
-20.52566   0.00000   1.99660
-20.47559   0.00000   1.99660
-20.42553   0.00000   1.99660
-20.37547   0.00000   1.99660
-20.32541   0.00000   1.99660
-20.27534   0.00000   1.99660
-20.22528   0.00000   1.99660
-20.17522   0.00000   1.99660
-20.12516   0.00000   1.99660
-20.07509   0.00000   1.99660
-20.02503   0.00000   1.99660
-19.97497   0.01295   1.99725
-19.92491   0.40140   2.01734
-19.87484   0.42724   2.03873
-19.82478   0.92999   2.08529
-19.77472   1.48139   2.15945
-19.72466   1.14635   2.21684
-19.67459   1.90771   2.31234
-19.62453   2.41859   2.43342
-19.57447   2.86160   2.57668
-19.52441   4.49859   2.80189
-19.47434   5.74048   3.08928
-19.42428   5.79627   3.37945
-19.37422   5.15831   3.63769
-19.32416   6.13913   3.94503
-19.27409   1.02588   3.99639
-19.22403   0.00000   3.99639
-19.17397   0.00000   3.99639
-19.12390   0.00000   3.99639
-19.07384   0.00000   3.99639
-19.02378   0.00000   3.99639
-18.97372   0.00000   3.99639
-18.92365   0.00000   3.99639
-18.87359   0.00000   3.99639
-18.82353   0.00000   3.99639
-18.77347   0.00000   3.99639
-18.72340   0.00000   3.99639
-18.67334   0.00000   3.99639
-18.62328   0.00000   3.99639
-18.57322   0.00000   3.99639
-18.52315   0.00000   3.99639
-18.47309   0.00000   3.99639
-18.42303   0.00000   3.99639
-18.37297   0.00000   3.99639
-18.32290   0.00000   3.99639
-18.27284   0.00000   3.99639
-18.22278   0.00000   3.99639
-18.17272   0.00000   3.99639
-18.12265   0.00000   3.99639
-18.07259   0.00000   3.99639
-18.02253   0.00000   3.99639
-17.97247   0.00000   3.99639
-17.92240   0.00000   3.99639
-17.87234   0.00000   3.99639
-17.82228   0.00000   3.99639
-17.77222   0.00000   3.99639
-17.72215   0.00000   3.99639
-17.67209   0.00000   3.99639
-17.62203   0.00000   3.99639
-17.57196   0.00000   3.99639
-17.52190   0.00000   3.99639
-17.47184   0.00000   3.99639
-17.42178   0.00000   3.99639
-17.37171   0.00000   3.99639
-17.32165   0.00000   3.99639
-17.27159   0.00000   3.99639
-17.22153   0.00000   3.99639
-17.17146   0.00000   3.99639
-17.12140   0.00000   3.99639
-17.07134   0.00000   3.99639
-17.02128   0.00000   3.99639
-16.97121   0.00000   3.99639
-16.92115   0.00000   3.99639
-16.87109   0.00000   3.99639
-16.82103   0.00000   3.99639
-16.77096   0.00000   3.99639
-16.72090   0.00000   3.99639
-16.67084   0.00000   3.99639
-16.62078   0.00000   3.99639
-16.57071   0.00000   3.99639
-16.52065   0.00000   3.99639
-16.47059   0.00000   3.99639
-16.42053   0.00000   3.99639
-16.37046   0.00000   3.99639
-16.32040   0.00000   3.99639
-16.27034   0.00000   3.99639
-16.22028   0.00000   3.99639
-16.17021   0.00000   3.99639
-16.12015   0.00000   3.99639
-16.07009   0.00000   3.99639
-16.02003   0.00000   3.99639
-15.96996   0.00000   3.99639
-15.91990   0.00000   3.99639
-15.86984   0.00000   3.99639
-15.81977   0.00000   3.99639
-15.76971   0.00000   3.99639
-15.71965   0.00000   3.99639
-15.66959   0.00000   3.99639
-15.61952   0.00000   3.99639
-15.56946   0.00000   3.99639
-15.51940   0.00000   3.99639
-15.46934   0.00000   3.99639
-15.41927   0.00000   3.99639
-15.36921   0.00000   3.99639
-15.31915   0.00000   3.99639
-15.26909   0.00000   3.99639
-15.21902   0.00000   3.99639
-15.16896   0.00000   3.99639
-15.11890   0.00000   3.99639
-15.06884   0.00000   3.99639
-15.01877   0.00000   3.99639
-14.96871   0.00000   3.99639
-14.91865   0.00000   3.99639
-14.86859   0.00000   3.99639
-14.81852   0.00000   3.99639
-14.76846   0.00000   3.99639
-14.71840   0.00000   3.99639
-14.66834   0.00000   3.99639
-14.61827   0.00000   3.99639
-14.56821   0.00000   3.99639
-14.51815   0.00000   3.99639
-14.46809   0.00000   3.99639
-14.41802   0.00000   3.99639
-14.36796   0.00000   3.99639
-14.31790   0.00000   3.99639
-14.26783   0.00000   3.99639
-14.21777   0.00000   3.99639
-14.16771   0.00000   3.99639
-14.11765   0.00000   3.99639
-14.06758   0.00000   3.99639
-14.01752   0.00000   3.99639
-13.96746   0.00000   3.99639
-13.91740   0.00000   3.99639
-13.86733   0.00000   3.99639
-13.81727   0.00000   3.99639
-13.76721   0.00000   3.99639
-13.71715   0.00000   3.99639
-13.66708   0.00000   3.99639
-13.61702   0.00000   3.99639
-13.56696   0.00000   3.99639
-13.51690   0.00000   3.99639
-13.46683   0.00000   3.99639
-13.41677   0.00000   3.99639
-13.36671   0.00000   3.99639
-13.31665   0.00000   3.99639
-13.26658   0.00000   3.99639
-13.21652   0.00000   3.99639
-13.16646   0.00000   3.99639
-13.11640   0.00000   3.99639
-13.06633   0.00000   3.99639
-13.01627   0.00000   3.99639
-12.96621   0.00000   3.99639
-12.91615   0.00000   3.99639
-12.86608   0.00000   3.99639
-12.81602   0.00000   3.99639
-12.76596   0.00000   3.99639
-12.71589   0.00000   3.99639
-12.66583   0.00000   3.99639
-12.61577   0.00000   3.99639
-12.56571   0.00000   3.99639
-12.51564   0.00000   3.99639
-12.46558   0.00000   3.99639
-12.41552   0.00000   3.99639
-12.36546   0.00000   3.99639
-12.31539   0.00000   3.99639
-12.26533   0.00000   3.99639
-12.21527   0.00000   3.99639
-12.16521   0.00000   3.99639
-12.11514   0.00000   3.99639
-12.06508   0.00000   3.99639
-12.01502   0.00000   3.99639
-11.96496   0.00000   3.99639
-11.91489   0.00000   3.99639
-11.86483   0.00000   3.99639
-11.81477   0.00000   3.99639
-11.76471   0.00000   3.99639
-11.71464   0.00000   3.99639
-11.66458   0.00000   3.99639
-11.61452   0.00000   3.99639
-11.56446   0.00000   3.99639
-11.51439   0.00000   3.99639
-11.46433   0.00000   3.99639
-11.41427   0.00000   3.99639
-11.36421   0.00000   3.99639
-11.31414   0.00000   3.99639
-11.26408   0.00000   3.99639
-11.21402   0.00000   3.99639
-11.16395   0.00000   3.99639
-11.11389   0.00000   3.99639
-11.06383   0.00000   3.99639
-11.01377   0.00000   3.99639
-10.96370   0.00000   3.99639
-10.91364   0.00000   3.99639
-10.86358   0.00000   3.99639
-10.81352   0.00000   3.99639
-10.76345   0.00000   3.99639
-10.71339   0.00000   3.99639
-10.66333   0.00000   3.99639
-10.61327   0.00000   3.99639
-10.56320   0.00000   3.99639
-10.51314   0.00000   3.99639
-10.46308   0.00000   3.99639
-10.41302   0.00000   3.99639
-10.36295   0.00000   3.99639
-10.31289   0.00000   3.99639
-10.26283   0.00000   3.99639
-10.21277   0.00000   3.99639
-10.16270   0.00000   3.99639
-10.11264   0.00000   3.99639
-10.06258   0.00000   3.99639
-10.01252   0.00000   3.99639
 -9.96245   0.00000   3.99639
 -9.91239   0.00000   3.99639
 -9.86233   0.00000   3.99639
 -9.81227   0.00000   3.99639
 -9.76220   0.00000   3.99639
 -9.71214   0.00000   3.99639
 -9.66208   0.00000   3.99639
 -9.61202   0.00000   3.99639
 -9.56195   0.00000   3.99639
 -9.51189   0.00000   3.99639
 -9.46183   0.00000   3.99639
 -9.41176   0.00000   3.99639
 -9.36170   0.00000   3.99639
 -9.31164   0.00000   3.99639
 -9.26158   0.00000   3.99639
 -9.21151   0.00000   3.99639
 -9.16145   0.00000   3.99639
 -9.11139   0.00000   3.99639
 -9.06133   0.00000   3.99639
 -9.01126   0.00000   3.99639
 -8.96120   0.00000   3.99639
 -8.91114   0.00000   3.99639
 -8.86108   0.00000   3.99639
 -8.81101   0.00000   3.99639
 -8.76095   0.00000   3.99639
 -8.71089   0.00000   3.99639
 -8.66083   0.00000   3.99639
 -8.61076   0.00000   3.99639
 -8.56070   0.00000   3.99639
 -8.51064   0.00000   3.99639
 -8.46058   0.00000   3.99639
 -8.41051   0.00000   3.99639
 -8.36045   0.00000   3.99639
 -8.31039   0.00000   3.99639
 -8.26033   0.00000   3.99639
 -8.21026   0.00000   3.99639
 -8.16020   0.00000   3.99639
 -8.11014   0.00000   3.99639
 -8.06008   0.00000   3.99639
 -8.01001   0.00000   3.99639
 -7.95995   0.00000   3.99639
 -7.90989   0.00000   3.99639
 -7.85982   0.00000   3.99639
 -7.80976   0.00000   3.99639
 -7.75970   0.00000   3.99639
 -7.70964   0.00000   3.99639
 -7.65957   0.00000   3.99639
 -7.60951   0.00000   3.99639
 -7.55945   0.00000   3.99639
 -7.50939   0.00000   3.99639
 -7.45932   0.00000   3.99639
 -7.40926   0.00000   3.99639
 -7.35920   0.00000   3.99639
 -7.30914   0.00000   3.99639
 -7.25907   0.00000   3.99639
 -7.20901   0.00000   3.99639
 -7.15895   0.00000   3.99639
 -7.10889   0.00000   3.99639
 -7.05882   0.00000   3.99639
 -7.00876   0.00000   3.99639
 -6.95870   0.00000   3.99639
 -6.90864   0.00000   3.99639
 -6.85857   0.00000   3.99639
 -6.80851   0.00000   3.99639
 -6.75845   0.00000   3.99639
 -6.70839   0.00000   3.99639
 -6.65832   0.00000   3.99639
 -6.60826   0.00000   3.99639
 -6.55820   0.00000   3.99639
 -6.50814   0.00000   3.99639
 -6.45807   0.00000   3.99639
 -6.40801   0.00000   3.99639
 -6.35795   0.00000   3.99639
 -6.30788   0.00000   3.99639
 -6.25782   0.00000   3.99639
 -6.20776   0.00000   3.99639
 -6.15770   0.00000   3.99639
 -6.10763   0.00000   3.99639
 -6.05757   0.00000   3.99639
 -6.00751   0.00000   3.99639
 -5.95745   0.00000   3.99639
 -5.90738   0.00000   3.99639
 -5.85732   0.00000   3.99639
 -5.80726   0.00000   3.99639
 -5.75720   0.00000   3.99639
 -5.70713   0.00000   3.99639
 -5.65707   0.00000   3.99639
 -5.60701   0.00000   3.99639
 -5.55695   0.00000   3.99639
 -5.50688   0.00000   3.99639
 -5.45682   0.00000   3.99639
 -5.40676   0.00000   3.99639
 -5.35670   0.00000   3.99639
 -5.30663   0.00000   3.99639
 -5.25657   0.00000   3.99639
 -5.20651   0.00000   3.99639
 -5.15645   0.00000   3.99639
 -5.10638   0.00000   3.99639
 -5.05632   0.00000   3.99639
 -5.00626   0.00000   3.99639
 -4.95620   0.00000   3.99639
 -4.90613   0.00000   3.99639
 -4.85607   0.00000   3.99639
 -4.80601   0.00000   3.99639
 -4.75594   0.00000   3.99639
 -4.70588   0.00000   3.99639
 -4.65582   0.00000   3.99639
 -4.60576   0.00000   3.99639
 -4.55569   0.00000   3.99639
 -4.50563   0.00000   3.99639
 -4.45557   0.00000   3.99639
 -4.40551   0.00000   3.99639
 -4.35544   0.00000   3.99639
 -4.30538   0.00000   3.99639
 -4.25532   0.00000   3.99639
 -4.20526   0.00000   3.99639
 -4.15519   0.00000   3.99639
 -4.10513   0.00000   3.99639
 -4.05507   0.00000   3.99639
 -4.00501   0.00000   3.99639
 -3.95494   0.00000   3.99639
 -3.90488   0.00000   3.99639
 -3.85482   0.00000   3.99639
 -3.80476   0.00000   3.99639
 -3.75469   0.00000   3.99639
 -3.70463   0.00000   3.99639
 -3.65457   0.00000   3.99639
 -3.60451   0.00000   3.99639
 -3.55444   0.00000   3.99639
 -3.50438   0.00000   3.99639
 -3.45432   0.00000   3.99639
 -3.40426   0.00000   3.99639
 -3.35419   0.00000   3.99639
 -3.30413   0.00000   3.99639
 -3.25407   0.00000   3.99639
 -3.20401   0.00000   3.99639
 -3.15394   0.00000   3.99639
 -3.10388   0.00000   3.99639
 -3.05382   0.00000   3.99639
 -3.00375   0.00000   3.99639
 -2.95369   0.00000   3.99639
 -2.90363   0.29424   4.01112
 -2.85357   0.24603   4.02344
 -2.80350   0.00036   4.02346
 -2.75344   0.71995   4.05950
 -2.70338   0.00006   4.05950
 -2.65332   1.34765   4.12697
 -2.60325   0.81343   4.16769
 -2.55319   0.00000   4.16769
 -2.50313   0.00260   4.16782
 -2.45307   2.38362   4.28715
 -2.40300   0.93640   4.33403
 -2.35294   4.95765   4.58222
 -2.30288   1.91050   4.67787
 -2.25282   3.55460   4.85582
 -2.20275   1.55959   4.93390
 -2.15269   3.09539   5.08886
 -2.10263   0.93001   5.13542
 -2.05257   4.74124   5.37278
 -2.00250   0.00046   5.37280
 -1.95244   1.07559   5.42665
 -1.90238   2.14545   5.53405
 -1.85232   1.85929   5.62713
 -1.80225   0.32238   5.64327
 -1.75219   0.97489   5.69208
 -1.70213   1.90656   5.78753
 -1.65207   0.91904   5.83354
 -1.60200   3.89587   6.02857
 -1.55194   0.56514   6.05687
 -1.50188   0.03558   6.05865
 -1.45181   0.41527   6.07944
 -1.40175   2.60587   6.20989
 -1.35169   3.34027   6.37711
 -1.30163   2.61384   6.50797
 -1.25156   0.98751   6.55741
 -1.20150   0.45683   6.58028
 -1.15144   0.77204   6.61893
 -1.10138   2.00720   6.71941
 -1.05131   1.87881   6.81347
 -1.00125   4.10050   7.01875
 -0.95119   1.19226   7.07844
 -0.90113   1.20669   7.13885
 -0.85106   3.45638   7.31189
 -0.80100   3.74011   7.49913
 -0.75094   3.80857   7.68979
 -0.70088   5.23782   7.95201
 -0.65081   2.55835   8.08009
 -0.60075   2.73181   8.21685
 -0.55069   4.00624   8.41741
 -0.50063   4.04785   8.62006
 -0.45056   4.80650   8.86068
 -0.40050   2.91168   9.00645
 -0.35044   3.31390   9.17235
 -0.30038   4.55741   9.40051
 -0.25031   2.51181   9.52626
 -0.20025   3.97229   9.72512
 -0.15019   2.42417   9.84648
 -0.10013   1.31650   9.91239
 -0.05006   1.52682   9.98882
  0.00000   0.03661   9.99066
  0.05006   0.00000   9.99066
  0.10013   0.00000   9.99066
  0.15019   0.00000   9.99066
  0.20025   0.00000   9.99066
  0.25031   0.00000   9.99066
  0.30038   0.00000   9.99066
  0.35044   0.00000   9.99066
  0.40050   0.00000   9.99066
  0.45056   0.00000   9.99066
  0.50063   0.00000   9.99066
  0.55069   0.00000   9.99066
  0.60075   0.00000   9.99066
  0.65081   0.00000   9.99066
  0.70088   0.00000   9.99066
  0.75094   0.00000   9.99066
  0.80100   0.00000   9.99066
  0.85106   0.00000   9.99066
  0.90113   0.00000   9.99066
  0.95119   0.00000   9.99066
  1.00125   0.00000   9.99066
  1.05131   0.00000   9.99066
  1.10138   0.00000   9.99066
  1.15144   0.00000   9.99066
  1.20150   0.00000   9.99066
  1.25156   0.00000   9.99066
  1.30163   0.00000   9.99066
  1.35169   0.00000   9.99066
  1.40175   0.00000   9.99066
  1.45181   0.00000   9.99066
  1.50188   0.00000   9.99066
  1.55194   0.00000   9.99066
  1.60200   0.00000   9.99066
  1.65207   0.00000   9.99066
  1.70213   0.00000   9.99066
  1.75219   0.00000   9.99066
  1.80225   0.00000   9.99066
  1.85232   0.00000   9.99066
  1.90238   0.00000   9.99066
  1.95244   0.00000   9.99066
  2.00250   0.00000   9.99066
  2.05257   0.00000   9.99066
  2.10263   0.00000   9.99066
  2.15269   0.00000   9.99066
  2.20275   0.00000   9.99066
  2.25282   0.00000   9.99066
  2.30288   0.00000   9.99066
  2.35294   0.00000   9.99066
  2.40300   0.00000   9.99066
  2.45307   0.00000   9.99066
  2.50313   0.00000   9.99066
  2.55319   0.00000   9.99066
  2.60325   0.00000   9.99066
  2.65332   0.00000   9.99066
  2.70338   0.00000   9.99066
  2.75344   0.00000   9.99066
  2.80350   0.00000   9.99066
  2.85357   0.00000   9.99066
  2.90363   0.00000   9.99066
  2.95369   0.00000   9.99066
  3.00375   0.00000   9.99066
  3.05382   0.00000   9.99066
  3.10388   0.00000   9.99066
  3.15394   0.00000   9.99066
  3.20401   0.00000   9.99066
  3.25407   0.00000   9.99066
  3.30413   0.00000   9.99066
  3.35419   0.00000   9.99066
  3.40426   0.00000   9.99066
  3.45432   0.00000   9.99066
  3.50438   0.00000   9.99066
  3.55444   0.00000   9.99066
  3.60451   0.00000   9.99066
  3.65457   0.00000   9.99066
  3.70463   0.00000   9.99066
  3.75469   0.00000   9.99066
  3.80476   0.00000   9.99066
  3.85482   0.00000   9.99066
  3.90488   0.00000   9.99066
  3.95494   0.00000   9.99066
  4.00501   0.00000   9.99066
  4.05507   0.00000   9.99066
  4.10513   0.00000   9.99066
  4.15519   0.00000   9.99066
  4.20526   0.00000   9.99066
  4.25532   0.00000   9.99066
  4.30538   0.00000   9.99066
  4.35544   0.00000   9.99066
  4.40551   0.00000   9.99066
  4.45557   0.00000   9.99066
  4.50563   0.00000   9.99066
  4.55569   0.00000   9.99066
  4.60576   0.00000   9.99066
  4.65582   0.00000   9.99066
  4.70588   0.00000   9.99066
  4.75594   0.00000   9.99066
  4.80601   0.00000   9.99066
  4.85607   0.00000   9.99066
  4.90613   0.00000   9.99066
  4.95620   0.00000   9.99066
  5.00626   0.00000   9.99066
      5.00625782     -35.04380476   801      -1.08914983       1.00000000; Z=  3; 1s 2s 2p_y 2p_z 2p_x 
-35.04380   0.00000   0.00000   0.00000   0.00000   0.00000
-34.99374   0.00000   0.00000   0.00000   0.00000   0.00000
-34.94368   0.00000   0.00000   0.00000   0.00000   0.00000
-34.89362   0.00000   0.00000   0.00000   0.00000   0.00000
-34.84355   0.00000   0.00000   0.00000   0.00000   0.00000
-34.79349   0.00000   0.00000   0.00000   0.00000   0.00000
-34.74343   0.00000   0.00000   0.00000   0.00000   0.00000
-34.69337   0.00000   0.00000   0.00000   0.00000   0.00000
-34.64330   0.00000   0.00000   0.00000   0.00000   0.00000
-34.59324   0.00000   0.00000   0.00000   0.00000   0.00000
-34.54318   0.00000   0.00000   0.00000   0.00000   0.00000
-34.49312   0.00000   0.00000   0.00000   0.00000   0.00000
-34.44305   0.00000   0.00000   0.00000   0.00000   0.00000
-34.39299   0.00000   0.00000   0.00000   0.00000   0.00000
-34.34293   0.00000   0.00000   0.00000   0.00000   0.00000
-34.29287   0.00000   0.00000   0.00000   0.00000   0.00000
-34.24280   0.00000   0.00000   0.00000   0.00000   0.00000
-34.19274   0.00000   0.00000   0.00000   0.00000   0.00000
-34.14268   0.00000   0.00000   0.00000   0.00000   0.00000
-34.09262   0.00000   0.00000   0.00000   0.00000   0.00000
-34.04255   0.00000   0.00000   0.00000   0.00000   0.00000
-33.99249   0.00000   0.00000   0.00000   0.00000   0.00000
-33.94243   0.00000   0.00000   0.00000   0.00000   0.00000
-33.89237   0.00000   0.00000   0.00000   0.00000   0.00000
-33.84230   0.00000   0.00000   0.00000   0.00000   0.00000
-33.79224   0.00000   0.00000   0.00000   0.00000   0.00000
-33.74218   0.00000   0.00000   0.00000   0.00000   0.00000
-33.69212   0.00000   0.00000   0.00000   0.00000   0.00000
-33.64205   0.00000   0.00000   0.00000   0.00000   0.00000
-33.59199   0.00000   0.00000   0.00000   0.00000   0.00000
-33.54193   0.00000   0.00000   0.00000   0.00000   0.00000
-33.49186   0.00000   0.00000   0.00000   0.00000   0.00000
-33.44180   0.00000   0.00000   0.00000   0.00000   0.00000
-33.39174   0.00000   0.00000   0.00000   0.00000   0.00000
-33.34168   0.00000   0.00000   0.00000   0.00000   0.00000
-33.29161   0.00000   0.00000   0.00000   0.00000   0.00000
-33.24155   0.00000   0.00000   0.00000   0.00000   0.00000
-33.19149   0.00000   0.00000   0.00000   0.00000   0.00000
-33.14143   0.00000   0.00000   0.00000   0.00000   0.00000
-33.09136   0.00000   0.00000   0.00000   0.00000   0.00000
-33.04130   0.00000   0.00000   0.00000   0.00000   0.00000
-32.99124   0.00000   0.00000   0.00000   0.00000   0.00000
-32.94118   0.00000   0.00000   0.00000   0.00000   0.00000
-32.89111   0.00000   0.00000   0.00000   0.00000   0.00000
-32.84105   0.00000   0.00000   0.00000   0.00000   0.00000
-32.79099   0.00000   0.00000   0.00000   0.00000   0.00000
-32.74093   0.00000   0.00000   0.00000   0.00000   0.00000
-32.69086   0.00000   0.00000   0.00000   0.00000   0.00000
-32.64080   0.00000   0.00000   0.00000   0.00000   0.00000
-32.59074   0.00000   0.00000   0.00000   0.00000   0.00000
-32.54068   0.00000   0.00000   0.00000   0.00000   0.00000
-32.49061   0.00000   0.00000   0.00000   0.00000   0.00000
-32.44055   0.00000   0.00000   0.00000   0.00000   0.00000
-32.39049   0.00000   0.00000   0.00000   0.00000   0.00000
-32.34043   0.00000   0.00000   0.00000   0.00000   0.00000
-32.29036   0.00000   0.00000   0.00000   0.00000   0.00000
-32.24030   0.00000   0.00000   0.00000   0.00000   0.00000
-32.19024   0.00000   0.00000   0.00000   0.00000   0.00000
-32.14018   0.00000   0.00000   0.00000   0.00000   0.00000
-32.09011   0.00000   0.00000   0.00000   0.00000   0.00000
-32.04005   0.00000   0.00000   0.00000   0.00000   0.00000
-31.98999   0.00000   0.00000   0.00000   0.00000   0.00000
-31.93992   0.00000   0.00000   0.00000   0.00000   0.00000
-31.88986   0.00000   0.00000   0.00000   0.00000   0.00000
-31.83980   0.00000   0.00000   0.00000   0.00000   0.00000
-31.78974   0.00000   0.00000   0.00000   0.00000   0.00000
-31.73967   0.00000   0.00000   0.00000   0.00000   0.00000
-31.68961   0.00000   0.00000   0.00000   0.00000   0.00000
-31.63955   0.00000   0.00000   0.00000   0.00000   0.00000
-31.58949   0.00000   0.00000   0.00000   0.00000   0.00000
-31.53942   0.00000   0.00000   0.00000   0.00000   0.00000
-31.48936   0.00000   0.00000   0.00000   0.00000   0.00000
-31.43930   0.00000   0.00000   0.00000   0.00000   0.00000
-31.38924   0.00000   0.00000   0.00000   0.00000   0.00000
-31.33917   0.00000   0.00000   0.00000   0.00000   0.00000
-31.28911   0.00000   0.00000   0.00000   0.00000   0.00000
-31.23905   0.00000   0.00000   0.00000   0.00000   0.00000
-31.18899   0.00000   0.00000   0.00000   0.00000   0.00000
-31.13892   0.00000   0.00000   0.00000   0.00000   0.00000
-31.08886   0.00000   0.00000   0.00000   0.00000   0.00000
-31.03880   0.00000   0.00000   0.00000   0.00000   0.00000
-30.98874   0.00000   0.00000   0.00000   0.00000   0.00000
-30.93867   0.00000   0.00000   0.00000   0.00000   0.00000
-30.88861   0.00000   0.00000   0.00000   0.00000   0.00000
-30.83855   0.00000   0.00000   0.00000   0.00000   0.00000
-30.78849   0.00000   0.00000   0.00000   0.00000   0.00000
-30.73842   0.00000   0.00000   0.00000   0.00000   0.00000
-30.68836   0.00000   0.00000   0.00000   0.00000   0.00000
-30.63830   0.00000   0.00000   0.00000   0.00000   0.00000
-30.58824   0.00000   0.00000   0.00000   0.00000   0.00000
-30.53817   0.00000   0.00000   0.00000   0.00000   0.00000
-30.48811   0.00000   0.00000   0.00000   0.00000   0.00000