    2    2    1    1
  0.8350810E+01  0.2869183E-09  0.2869183E-09  0.2869183E-09  0.5000000E-15
  1.000000000000000E-004
  CAR 
 unknown system                          
     10   1331     12
 
  0.0000000E+00  0.0000000E+00  0.0000000E+00  0.7513148E-03
    1      -42.121407   1.000000
    2      -21.062871   1.000000
    3       -1.148018   1.000000
    4       -1.147999   1.000000
    5       -1.147998   1.000000
    6        7.745287   0.000000
    7       22.526793   0.000000
    8       22.526888   0.000000
    9       22.526894   0.000000
   10       22.957636   0.000000
   11       22.957735   0.000000
   12       22.957745   0.000000
 
  0.9090909E-01  0.0000000E+00 -0.8430704E-17  0.7513148E-03
    1      -42.117130   1.000000
    2      -21.031247   1.000000
    3       -1.382842   1.000000
    4       -1.166502   1.000000
    5       -1.166485   1.000000
    6        7.991912   0.000000
    7       20.181278   0.000000
    8       21.449306   0.000000
    9       21.449407   0.000000
   10       23.864502   0.000000
   11       23.864665   0.000000
   12       30.696892   0.000000
 
  0.1818182E+00  0.0000000E+00 -0.1686141E-16  0.7513148E-03
    1      -42.105898   1.000000
    2      -20.946516   1.000000
    3       -1.965184   1.000000
    4       -1.215193   1.000000
    5       -1.215178   1.000000
    6        8.569271   0.000000
    7       17.856285   0.000000
    8       20.106045   0.000000
    9       20.106138   0.000000
   10       25.039259   0.000000
   11       25.039491   0.000000
   12       32.320408   0.000000
 
  0.2727273E+00  0.0000000E+00 -0.1141430E-16  0.7513148E-03
    1      -42.091053   1.000000
    2      -20.831152   1.000000
    3       -2.651983   1.000000
    4       -1.277126   1.000000
    5       -1.277112   1.000000
    6        9.144413   0.000000
    7       16.286447   0.000000
    8       18.923959   0.000000
    9       18.924052   0.000000
   10       25.890000   0.000000
   11       26.484002   0.000000
   12       26.484070   0.000000
 
  0.3636364E+00  0.0000000E+00 -0.3372282E-16  0.7513148E-03
    1      -42.077375   1.000000
    2      -20.720917   1.000000
    3       -3.230657   1.000000
    4       -1.332233   1.000000
    5       -1.332221   1.000000
    6        9.448094   0.000000
    7       15.540022   0.000000
    8       18.069853   0.000000
    9       18.069946   0.000000
   10       27.639832   0.000000
   11       28.074814   0.000000
   12       28.074644   0.000000
 
  0.4545455E+00  0.0000000E+00 -0.5603044E-16  0.7513148E-03
    1      -42.069381   1.000000
    2      -20.654134   1.000000
    3       -3.557021   1.000000
    4       -1.364190   1.000000
    5       -1.364179   1.000000
    6        9.507397   0.000000
    7       15.342519   0.000000
    8       17.625749   0.000000
    9       17.625842   0.000000
   10       29.301028   0.000000
   11       29.301124   0.000000
   12       31.665519   0.000000
 
 -0.4545455E+00  0.0000000E+00  0.5603044E-16  0.7513148E-03
    1      -42.069381   1.000000
    2      -20.654134   1.000000
    3       -3.557021   1.000000
    4       -1.364190   1.000000
    5       -1.364179   1.000000
    6        9.507397   0.000000
    7       15.342519   0.000000
    8       17.625749   0.000000
    9       17.625842   0.000000
   10       29.301014   0.000000
   11       29.301125   0.000000
   12       31.664924   0.000000
 
 -0.3636364E+00  0.0000000E+00  0.3372282E-16  0.7513148E-03
    1      -42.077375   1.000000
    2      -20.720917   1.000000
    3       -3.230657   1.000000
    4       -1.332233   1.000000
    5       -1.332221   1.000000
    6        9.448094   0.000000
    7       15.540023   0.000000
    8       18.069853   0.000000
    9       18.069946   0.000000
   10       27.653225   0.000000
   11       28.074816   0.000000
   12       28.074068   0.000000
 
 -0.2727273E+00  0.0000000E+00  0.1141430E-16  0.7513148E-03
    1      -42.091053   1.000000
    2      -20.831152   1.000000
    3       -2.651983   1.000000
    4       -1.277126   1.000000
    5       -1.277112   1.000000
    6        9.144413   0.000000
    7       16.286444   0.000000
    8       18.923959   0.000000
    9       18.924052   0.000000
   10       25.883780   0.000000
   11       26.484008   0.000000
   12       26.484066   0.000000
 
 -0.1818182E+00  0.0000000E+00  0.1686141E-16  0.7513148E-03
    1      -42.105898   1.000000
    2      -20.946516   1.000000
    3       -1.965184   1.000000
    4       -1.215193   1.000000
    5       -1.215178   1.000000
    6        8.569271   0.000000
    7       17.855954   0.000000
    8       20.106045   0.000000
    9       20.106138   0.000000
   10       25.038236   0.000000
   11       25.039502   0.000000
   12       32.312480   0.000000
 
 -0.9090909E-01  0.0000000E+00  0.8430704E-17  0.7513148E-03
    1      -42.117130   1.000000
    2      -21.031247   1.000000
    3       -1.382842   1.000000
    4       -1.166502   1.000000
    5       -1.166485   1.000000
    6        7.991912   0.000000
    7       20.180891   0.000000
    8       21.449314   0.000000
    9       21.449405   0.000000
   10       23.864535   0.000000
   11       23.864800   0.000000
   12       30.688242   0.000000
 
  0.2081668E-16  0.9090909E-01  0.6815068E-17  0.7513148E-03
    1      -42.117130   1.000000
    2      -21.031247   1.000000
    3       -1.382842   1.000000
    4       -1.166502   1.000000
    5       -1.166486   1.000000
    6        7.991912   0.000000
    7       20.181238   0.000000
    8       21.449315   0.000000
    9       21.449403   0.000000
   10       23.864530   0.000000
   11       23.864659   0.000000
   12       30.692840   0.000000
 
  0.9090909E-01  0.9090909E-01  0.2044896E-17  0.7513148E-03
    1      -42.115768   1.000000
    2      -21.020314   1.000000
    3       -1.360750   1.000000
    4       -1.227357   1.000000
    5       -1.227343   1.000000
    6        8.088375   0.000000
    7       20.889652   0.000000
    8       20.889714   0.000000
    9       21.100408   0.000000
   10       21.397206   0.000000
   11       25.325564   0.000000
   12       31.346107   0.000000
 
  0.1818182E+00  0.9090909E-01 -0.3107499E-17  0.7513148E-03
    1      -42.106976   1.000000
    2      -20.952019   1.000000
    3       -1.808856   1.000000
    4       -1.311695   1.000000
    5       -1.260126   1.000000
    6        8.594548   0.000000
    7       18.469808   0.000000
    8       20.058685   0.000000
    9       20.222337   0.000000
   10       21.984211   0.000000
   11       26.604350   0.000000
   12       32.603739   0.000000
 
  0.2727273E+00  0.9090909E-01  0.1621745E-16  0.7513148E-03
    1      -42.093337   1.000000
    2      -20.843978   1.000000
    3       -2.454761   1.000000
    4       -1.391460   1.000000
    5       -1.325457   1.000000
    6        9.234243   0.000000
    7       16.610448   0.000000
    8       19.062193   0.000000
    9       19.149015   0.000000
   10       23.299074   0.000000
   11       27.738062   0.000000
   12       33.621358   0.000000
 
  0.3636364E+00  0.9090909E-01  0.7786668E-17  0.7513148E-03
    1      -42.079363   1.000000
    2      -20.729337   1.000000
    3       -3.057165   1.000000
    4       -1.441361   1.000000
    5       -1.425285   1.000000
    6        9.688963   0.000000
    7       15.555473   0.000000
    8       18.194326   0.000000
    9       18.347451   0.000000
   10       24.942915   0.000000
   11       28.937590   0.000000
   12       33.110832   0.000000
 
  0.4545455E+00  0.9090909E-01  0.1323447E-16  0.7513148E-03
    1      -42.069440   1.000000
    2      -20.645491   1.000000
    3       -3.455843   1.000000
    4       -1.526426   1.000000
    5       -1.446676   1.000000
    6        9.844864   0.000000
    7       15.169862   0.000000
    8       17.718455   0.000000
    9       17.813527   0.000000
   10       26.737716   0.000000
   11       29.807685   0.000000
   12       32.611747   0.000000
 
 -0.4545455E+00  0.9090909E-01 -0.1348143E-16  0.7513148E-03
    1      -42.066786   1.000000
    2      -20.622939   1.000000
    3       -3.557547   1.000000
    4       -1.595816   1.000000
    5       -1.406678   1.000000
    6        9.854405   0.000000
    7       15.093395   0.000000
    8       17.638143   0.000000
    9       17.647270   0.000000
   10       28.196900   0.000000
   11       29.511241   0.000000
   12       33.239988   0.000000
 
 -0.3636364E+00  0.9090909E-01  0.1972120E-16  0.7513148E-03
    1      -42.072099   1.000000
    2      -20.669244   1.000000
    3       -3.340090   1.000000
    4       -1.610761   1.000000
    5       -1.333805   1.000000
    6        9.800518   0.000000
    7       15.193196   0.000000
    8       17.901454   0.000000
    9       17.909854   0.000000
   10       27.744917   0.000000
   11       28.014711   0.000000
   12       30.972842   0.000000
 
 -0.2727273E+00  0.9090909E-01 -0.2587342E-17  0.7513148E-03
    1      -42.083843   1.000000
    2      -20.768175   1.000000
    3       -2.855890   1.000000
    4       -1.563962   1.000000
    5       -1.250004   1.000000
    6        9.539074   0.000000
    7       15.728530   0.000000
    8       18.471320   0.000000
    9       18.589732   0.000000
   10       26.198005   0.000000
   11       26.840186   0.000000
   12       34.672088   0.000000
 
 -0.1818182E+00  0.9090909E-01  0.5837093E-16  0.7513148E-03
    1      -42.098254   1.000000
    2      -20.884903   1.000000
    3       -2.230358   1.000000
    4       -1.462450   1.000000
    5       -1.181044   1.000000
    6        8.988004   0.000000
    7       16.984213   0.000000
    8       19.218846   0.000000
    9       19.674603   0.000000
   10       24.609298   0.000000
   11       25.198699   0.000000
   12       33.526143   0.000000
 
 -0.9090909E-01  0.9090909E-01  0.2218464E-16  0.7513148E-03
    1      -42.110673   1.000000
    2      -20.981951   1.000000
    3       -1.666665   1.000000
    4       -1.315299   1.000000
    5       -1.149414   1.000000
    6        8.362565   0.000000
    7       18.826096   0.000000
    8       20.092044   0.000000
    9       20.955233   0.000000
   10       23.557090   0.000000
   11       25.912066   0.000000
   12       31.960210   0.000000
 
  0.4163336E-16  0.1818182E+00  0.1363014E-16  0.7513148E-03
    1      -42.105898   1.000000
    2      -20.946516   1.000000
    3       -1.965184   1.000000
    4       -1.215193   1.000000
    5       -1.215178   1.000000
    6        8.569271   0.000000
    7       17.856068   0.000000
    8       20.106046   0.000000
    9       20.106135   0.000000
   10       25.038981   0.000000
   11       25.039475   0.000000
   12       32.312678   0.000000
 
  0.9090909E-01  0.1818182E+00  0.1213835E-16  0.7513148E-03
    1      -42.106976   1.000000
    2      -20.952019   1.000000
    3       -1.808856   1.000000
    4       -1.311695   1.000000
    5       -1.260126   1.000000
    6        8.594548   0.000000
    7       18.469612   0.000000
    8       20.058682   0.000000
    9       20.222528   0.000000
   10       21.984162   0.000000
   11       26.594479   0.000000
   12       32.606625   0.000000
 
  0.1818182E+00  0.1818182E+00  0.4089793E-17  0.7513148E-03
    1      -42.100984   1.000000
    2      -20.899147   1.000000
    3       -1.947025   1.000000
    4       -1.437977   1.000000
    5       -1.437962   1.000000
    6        9.044702   0.000000
    7       18.834634   0.000000
    8       19.523415   0.000000
    9       19.729965   0.000000
   10       19.730026   0.000000
   11       31.152493   0.000000
   12       33.095758   0.000000
 
  0.2727273E+00  0.1818182E+00  0.3691025E-16  0.7513148E-03
    1      -42.090023   1.000000
    2      -20.803484   1.000000
    3       -2.438885   1.000000
    4       -1.553040   1.000000
    5       -1.551541   1.000000
    6        9.726091   0.000000
    7       17.015295   0.000000
    8       18.655238   0.000000
    9       19.223653   0.000000
   10       20.596925   0.000000
   11       29.823548   0.000000
   12       33.400559   0.000000
 
  0.3636364E+00  0.1818182E+00 -0.6214998E-17  0.7513148E-03
    1      -42.077455   1.000000
    2      -20.692261   1.000000
    3       -2.967623   1.000000
    4       -1.715236   1.000000
    5       -1.621378   1.000000
    6       10.365461   0.000000
    7       15.606908   0.000000
    8       17.979319   0.000000
    9       18.644240   0.000000
   10       22.052560   0.000000
   11       30.530320   0.000000
   12       32.989558   0.000000
 
  0.4545455E+00  0.1818182E+00 -0.2852256E-16  0.7513148E-03
    1      -42.067252   1.000000
    2      -20.600942   1.000000
    3       -3.343359   1.000000
    4       -1.917072   1.000000
    5       -1.623018   1.000000
    6       10.716922   0.000000
    7       14.884462   0.000000
    8       17.627420   0.000000
    9       18.143165   0.000000
   10       23.705009   0.000000
   11       30.995576   0.000000
   12       32.459922   0.000000
 
 -0.4545455E+00  0.1818182E+00  0.5578368E-16  0.7513148E-03
    1      -42.062763   1.000000
    2      -20.562135   1.000000
    3       -3.470902   1.000000
    4       -2.089769   1.000000
    5       -1.557923   1.000000
    6       10.774750   0.000000
    7       14.603890   0.000000
    8       17.606606   0.000000
    9       17.857699   0.000000
   10       25.429227   0.000000
   11       30.460845   0.000000
   12       34.571292   0.000000
 
 -0.3636364E+00  0.1818182E+00  0.1167419E-15  0.7513148E-03
    1      -42.065271   1.000000
    2      -20.589385   1.000000
    3       -3.328047   1.000000
    4       -2.167341   1.000000
    5       -1.445474   1.000000
    6       10.659461   0.000000
    7       14.551049   0.000000
    8       17.818215   0.000000
    9       17.879346   0.000000
   10       27.017116   0.000000
   11       28.778624   0.000000
   12       35.519978   0.000000
 
 -0.2727273E+00  0.1818182E+00 -0.1658890E-16  0.7513148E-03
    1      -42.074037   1.000000
    2      -20.672891   1.000000
    3       -2.977181   1.000000
    4       -2.096993   1.000000
    5       -1.319756   1.000000
    6       10.300499   0.000000
    7       14.887879   0.000000
    8       18.159121   0.000000
    9       18.245072   0.000000
   10       26.872149   0.000000
   11       27.763391   0.000000
   12       35.226450   0.000000
 
 -0.1818182E+00  0.1818182E+00  0.4436929E-16  0.7513148E-03
    1      -42.086356   1.000000
    2      -20.783559   1.000000
    3       -2.569047   1.000000
    4       -1.838194   1.000000
    5       -1.220567   1.000000
    6        9.664867   0.000000
    7       15.791351   0.000000
    8       18.587105   0.000000
    9       18.913083   0.000000
   10       25.354161   0.000000
   11       28.634677   0.000000
   12       34.558720   0.000000
 
 -0.9090909E-01  0.1818182E+00  0.2206083E-16  0.7513148E-03
    1      -42.098254   1.000000
    2      -20.884903   1.000000
    3       -2.230358   1.000000
    4       -1.462450   1.000000
    5       -1.181044   1.000000
    6        8.988004   0.000000
    7       16.984210   0.000000
    8       19.218840   0.000000
    9       19.674602   0.000000
   10       24.609315   0.000000
   11       25.208695   0.000000
   12       33.512366   0.000000
 
  0.2775558E-16  0.2727273E+00  0.1350621E-16  0.7513148E-03
    1      -42.091053   1.000000
    2      -20.831152   1.000000
    3       -2.651983   1.000000
    4       -1.277125   1.000000
    5       -1.277112   1.000000
    6        9.144413   0.000000
    7       16.286448   0.000000
    8       18.923961   0.000000
    9       18.924049   0.000000
   10       25.890986   0.000000
   11       26.484009   0.000000
   12       26.484064   0.000000
 
  0.9090909E-01  0.2727273E+00  0.1895332E-16  0.7513148E-03
    1      -42.093337   1.000000
    2      -20.843978   1.000000
    3       -2.454761   1.000000
    4       -1.391460   1.000000
    5       -1.325457   1.000000
    6        9.234243   0.000000
    7       16.610449   0.000000
    8       19.062196   0.000000
    9       19.149015   0.000000
   10       23.299021   0.000000
   11       27.738052   0.000000
   12       33.612653   0.000000
 
  0.1818182E+00  0.2727273E+00  0.3827816E-16  0.7513148E-03
    1      -42.090023   1.000000
    2      -20.803484   1.000000
    3       -2.438885   1.000000
    4       -1.553040   1.000000
    5       -1.551541   1.000000
    6        9.726091   0.000000
    7       17.015295   0.000000
    8       18.655237   0.000000
    9       19.223653   0.000000
   10       20.596926   0.000000
   11       29.823247   0.000000
   12       33.399045   0.000000
 
  0.2727273E+00  0.2727273E+00  0.3429012E-16  0.7513148E-03
    1      -42.082188   1.000000
    2      -20.721008   1.000000
    3       -2.749993   1.000000
    4       -1.708802   1.000000
    5       -1.708785   1.000000
    6       10.438194   0.000000
    7       17.073332   0.000000
    8       18.023943   0.000000
    9       19.120178   0.000000
   10       19.120238   0.000000
   11       32.552068   0.000000
   12       33.057929   0.000000
 
  0.3636364E+00  0.2727273E+00  0.3529449E-16  0.7513148E-03
    1      -42.072206   1.000000
    2      -20.619925   1.000000
    3       -3.164455   1.000000
    4       -1.882110   1.000000
    5       -1.811263   1.000000
    6       11.196145   0.000000
    7       15.881014   0.000000
    8       17.477792   0.000000
    9       18.849369   0.000000
   10       19.844481   0.000000
   11       32.491282   0.000000
   12       32.654408   0.000000
 
  0.4545455E+00  0.2727273E+00  0.4074250E-16  0.7513148E-03
    1      -42.063405   1.000000
    2      -20.533025   1.000000
    3       -3.440831   1.000000
    4       -2.154417   1.000000
    5       -1.831232   1.000000
    6       11.785595   0.000000
    7       14.834554   0.000000
    8       17.201720   0.000000
    9       18.493144   0.000000
   10       21.249615   0.000000
   11       32.033911   0.000000
   12       32.793240   0.000000
 
 -0.4545455E+00  0.2727273E+00 -0.9699589E-16  0.7513148E-03
    1      -42.058510   1.000000
    2      -20.489763   1.000000
    3       -3.471080   1.000000
    4       -2.471214   1.000000
    5       -1.763274   1.000000
    6       12.000647   0.000000
    7       14.213699   0.000000
    8       17.279578   0.000000
    9       18.173684   0.000000
   10       22.860225   0.000000
   11       31.719866   0.000000
   12       32.159380   0.000000
 
 -0.3636364E+00  0.2727273E+00 -0.3603765E-16  0.7513148E-03
    1      -42.059025   1.000000
    2      -20.505509   1.000000
    3       -3.240758   1.000000
    4       -2.729413   1.000000
    5       -1.626550   1.000000
    6       11.796451   0.000000
    7       13.953587   0.000000
    8       17.582286   0.000000
    9       17.996563   0.000000
   10       24.675048   0.000000
   11       30.320886   0.000000
   12       34.953863   0.000000
 
 -0.2727273E+00  0.2727273E+00 -0.3059061E-16  0.7513148E-03
    1      -42.064765   1.000000
    2      -20.574356   1.000000
    3       -3.000618   1.000000
    4       -2.652151   1.000000
    5       -1.461319   1.000000
    6       11.162758   0.000000
    7       14.189164   0.000000
    8       17.900304   0.000000
    9       18.021374   0.000000
   10       26.653757   0.000000
   11       28.343661   0.000000
   12       35.559229   0.000000
 
 -0.1818182E+00  0.2727273E+00  0.3036764E-16  0.7513148E-03
    1      -42.074037   1.000000
    2      -20.672891   1.000000
    3       -2.977181   1.000000
    4       -2.096993   1.000000
    5       -1.319756   1.000000
    6       10.300499   0.000000
    7       14.887879   0.000000
    8       18.159121   0.000000
    9       18.245072   0.000000
   10       26.872168   0.000000
   11       27.778027   0.000000
   12       35.226091   0.000000
 
 -0.9090909E-01  0.2727273E+00  0.8059148E-17  0.7513148E-03
    1      -42.083843   1.000000
    2      -20.768175   1.000000
    3       -2.855890   1.000000
    4       -1.563962   1.000000
    5       -1.250004   1.000000
    6        9.539074   0.000000
    7       15.728533   0.000000
    8       18.471333   0.000000
    9       18.589731   0.000000
   10       26.198693   0.000000
   11       26.874564   0.000000
   12       34.702041   0.000000
 
  0.8326673E-16  0.3636364E+00  0.2726027E-16  0.7513148E-03
    1      -42.077375   1.000000
    2      -20.720917   1.000000
    3       -3.230657   1.000000
    4       -1.332233   1.000000
    5       -1.332222   1.000000
    6        9.448092   0.000000
    7       15.540028   0.000000
    8       18.069854   0.000000
    9       18.069943   0.000000
   10       27.540672   0.000000
   11       28.074816   0.000000
   12       28.078150   0.000000
 
  0.9090909E-01  0.3636364E+00  0.4951755E-17  0.7513148E-03
    1      -42.079363   1.000000
    2      -20.729337   1.000000
    3       -3.057165   1.000000
    4       -1.441361   1.000000
    5       -1.425285   1.000000
    6        9.688962   0.000000
    7       15.555472   0.000000
    8       18.194269   0.000000
    9       18.347452   0.000000
   10       24.973193   0.000000
   11       28.937603   0.000000
   12       34.070270   0.000000
 
  0.1818182E+00  0.3636364E+00  0.2427671E-16  0.7513148E-03
    1      -42.077455   1.000000
    2      -20.692261   1.000000
    3       -2.967623   1.000000
    4       -1.715236   1.000000
    5       -1.621378   1.000000
    6       10.365461   0.000000
    7       15.606909   0.000000
    8       17.979318   0.000000
    9       18.644240   0.000000
   10       22.052559   0.000000
   11       30.530293   0.000000
   12       32.969493   0.000000
 
  0.2727273E+00  0.3636364E+00  0.4360155E-16  0.7513148E-03
    1      -42.072206   1.000000
    2      -20.619925   1.000000
    3       -3.164455   1.000000
    4       -1.882110   1.000000
    5       -1.811263   1.000000
    6       11.196145   0.000000
    7       15.881014   0.000000
    8       17.477792   0.000000
    9       18.849369   0.000000
   10       19.844481   0.000000
   11       32.491343   0.000000
   12       32.654413   0.000000
 
  0.3636364E+00  0.3636364E+00  0.8179585E-17  0.7513148E-03
    1      -42.065352   1.000000
    2      -20.534382   1.000000
    3       -3.522335   1.000000
    4       -1.952514   1.000000
    5       -1.952495   1.000000
    6       11.992252   0.000000
    7       15.887855   0.000000
    8       16.952083   0.000000
    9       18.885000   0.000000
   10       18.885060   0.000000
   11       32.213251   0.000000
   12       34.403995   0.000000
 
  0.4545455E+00  0.3636364E+00  0.4061851E-16  0.7513148E-03
    1      -42.059093   1.000000
    2      -20.462615   1.000000
    3       -3.760760   1.000000
    4       -2.122434   1.000000
    5       -2.005184   1.000000
    6       12.675411   0.000000
    7       15.136226   0.000000
    8       16.594852   0.000000
    9       18.746427   0.000000
   10       19.518185   0.000000
   11       31.941209   0.000000
   12       34.887349   0.000000
 
 -0.4545455E+00  0.3636364E+00 -0.8324186E-16  0.7513148E-03
    1      -42.055349   1.000000
    2      -20.428688   1.000000
    3       -3.749473   1.000000
    4       -2.415503   1.000000
    5       -1.955139   1.000000
    6       13.128120   0.000000
    7       14.183290   0.000000
    8       16.669485   0.000000
    9       18.495745   0.000000
   10       20.838047   0.000000
   11       32.163676   0.000000
   12       34.544286   0.000000
 
 -0.3636364E+00  0.3636364E+00  0.8873857E-16  0.7513148E-03
    1      -42.055262   1.000000
    2      -20.444569   1.000000
    3       -3.480831   1.000000
    4       -2.730048   1.000000
    5       -1.815822   1.000000
    6       12.937985   0.000000
    7       13.596018   0.000000
    8       17.134421   0.000000
    9       18.220540   0.000000
   10       22.541577   0.000000
   11       33.127962   0.000000
   12       35.951199   0.000000
 
 -0.2727273E+00  0.3636364E+00 -0.1683658E-16  0.7513148E-03
    1      -42.059025   1.000000
    2      -20.505509   1.000000
    3       -3.240757   1.000000
    4       -2.729413   1.000000
    5       -1.626550   1.000000
    6       11.796450   0.000000
    7       13.953587   0.000000
    8       17.582285   0.000000
    9       17.996563   0.000000
   10       24.675048   0.000000
   11       30.323975   0.000000
   12       34.732311   0.000000
 
 -0.1818182E+00  0.3636364E+00  0.4412166E-16  0.7513148E-03
    1      -42.065271   1.000000
    2      -20.589385   1.000000
    3       -3.328046   1.000000
    4       -2.167341   1.000000
    5       -1.445474   1.000000
    6       10.659461   0.000000
    7       14.551049   0.000000
    8       17.818214   0.000000
    9       17.879346   0.000000
   10       27.018278   0.000000
   11       28.776265   0.000000
   12       35.490461   0.000000
 
 -0.9090909E-01  0.3636364E+00 -0.5942413E-17  0.7513148E-03
    1      -42.072099   1.000000
    2      -20.669244   1.000000
    3       -3.340090   1.000000
    4       -1.610761   1.000000
    5       -1.333805   1.000000
    6        9.800518   0.000000
    7       15.193197   0.000000
    8       17.901454   0.000000
    9       17.909854   0.000000
   10       27.760102   0.000000
   11       28.014711   0.000000
   12       31.046366   0.000000
 
  0.8326673E-16  0.4545455E+00  0.1325945E-16  0.7513148E-03
    1      -42.069381   1.000000
    2      -20.654134   1.000000
    3       -3.557021   1.000000
    4       -1.364189   1.000000
    5       -1.364179   1.000000
    6        9.507397   0.000000
    7       15.342519   0.000000
    8       17.625750   0.000000
    9       17.625839   0.000000
   10       29.301020   0.000000
   11       29.301133   0.000000
   12       31.666570   0.000000
 
  0.9090909E-01  0.4545455E+00  0.1870651E-16  0.7513148E-03
    1      -42.069440   1.000000
    2      -20.645491   1.000000
    3       -3.455842   1.000000
    4       -1.526426   1.000000
    5       -1.446676   1.000000
    6        9.844864   0.000000
    7       15.169862   0.000000
    8       17.718454   0.000000
    9       17.813527   0.000000
   10       26.725418   0.000000
   11       29.807686   0.000000
   12       32.693351   0.000000
 
  0.1818182E+00  0.4545455E+00  0.2415367E-16  0.7513148E-03
    1      -42.067252   1.000000
    2      -20.600942   1.000000
    3       -3.343359   1.000000
    4       -1.917072   1.000000
    5       -1.623018   1.000000
    6       10.716922   0.000000
    7       14.884462   0.000000
    8       17.627419   0.000000
    9       18.143165   0.000000
   10       23.705009   0.000000
   11       30.995580   0.000000
   12       32.452657   0.000000
 
  0.2727273E+00  0.4545455E+00  0.7123399E-16  0.7513148E-03
    1      -42.063405   1.000000
    2      -20.533025   1.000000
    3       -3.440831   1.000000
    4       -2.154417   1.000000
    5       -1.831232   1.000000
    6       11.785595   0.000000
    7       14.834554   0.000000
    8       17.201720   0.000000
    9       18.493144   0.000000
   10       21.249615   0.000000
   11       32.033851   0.000000
   12       32.793239   0.000000
 
  0.3636364E+00  0.4545455E+00  0.1423111E-16  0.7513148E-03
    1      -42.059093   1.000000
    2      -20.462615   1.000000
    3       -3.760760   1.000000
    4       -2.122434   1.000000
    5       -2.005184   1.000000
    6       12.675411   0.000000
    7       15.136226   0.000000
    8       16.594852   0.000000
    9       18.746427   0.000000
   10       19.518185   0.000000
   11       31.941211   0.000000
   12       34.887349   0.000000
 
  0.4545455E+00  0.4545455E+00  0.3838309E-16  0.7513148E-03
    1      -42.055664   1.000000
    2      -20.412289   1.000000
    3       -3.996733   1.000000
    4       -2.095001   1.000000
    5       -2.094981   1.000000
    6       13.239665   0.000000
    7       15.293015   0.000000
    8       16.179444   0.000000
    9       18.832074   0.000000
   10       18.832134   0.000000
   11       31.656859   0.000000
   12       36.268654   0.000000
 
 -0.4545455E+00  0.4545455E+00  0.4153510E-16  0.7513148E-03
    1      -42.054260   1.000000
    2      -20.399379   1.000000
    3       -3.992115   1.000000
    4       -2.208848   1.000000
    5       -2.076724   1.000000
    6       13.465132   0.000000
    7       14.837228   0.000000
    8       16.135514   0.000000
    9       18.737448   0.000000
   10       19.431824   0.000000
   11       31.763533   0.000000
   12       36.501721   0.000000
 
 -0.3636364E+00  0.4545455E+00  0.4698224E-16  0.7513148E-03
    1      -42.055349   1.000000
    2      -20.428688   1.000000
    3       -3.749473   1.000000
    4       -2.415503   1.000000
    5       -1.955139   1.000000
    6       13.128120   0.000000
    7       14.183290   0.000000
    8       16.669485   0.000000
    9       18.495745   0.000000
   10       20.838047   0.000000
   11       32.163662   0.000000
   12       34.544196   0.000000
 
 -0.2727273E+00  0.4545455E+00  0.1079405E-15  0.7513148E-03
    1      -42.058510   1.000000
    2      -20.489763   1.000000
    3       -3.471080   1.000000
    4       -2.471214   1.000000
    5       -1.763274   1.000000
    6       12.000647   0.000000
    7       14.213699   0.000000
    8       17.279577   0.000000
    9       18.173684   0.000000
   10       22.860225   0.000000
   11       31.696578   0.000000
   12       32.159379   0.000000
 
 -0.1818182E+00  0.4545455E+00  0.5787575E-16  0.7513148E-03
    1      -42.062763   1.000000
    2      -20.562135   1.000000
    3       -3.470901   1.000000
    4       -2.089769   1.000000
    5       -1.557923   1.000000
    6       10.774750   0.000000
    7       14.603891   0.000000
    8       17.606605   0.000000
    9       17.857699   0.000000
   10       25.424039   0.000000
   11       30.460628   0.000000