  COHP#       atomMU       atomNU     distance     translation      ICOHP (at) eF   for spin  1
      1          Li1          Li1      5.73837       0   0  -2           -0.00687 
      1       Li1_1s       Li1_1s      5.73837       0   0  -2           -0.00000 
      1       Li1_2s       Li1_1s      5.73837       0   0  -2           -0.00003 
      1     Li1_2p_y       Li1_1s      5.73837       0   0  -2            0.00000 
      1     Li1_2p_z       Li1_1s      5.73837       0   0  -2           -0.00004 
      1     Li1_2p_x       Li1_1s      5.73837       0   0  -2            0.00000 
      1       Li1_1s       Li1_2s      5.73837       0   0  -2           -0.00015 
      1       Li1_2s       Li1_2s      5.73837       0   0  -2            0.00006 
      1     Li1_2p_y       Li1_2s      5.73837       0   0  -2           -0.00013 
      1     Li1_2p_z       Li1_2s      5.73837       0   0  -2            0.00002 
      1     Li1_2p_x       Li1_2s      5.73837       0   0  -2           -0.00015 
      1       Li1_1s     Li1_2p_y      5.73837       0   0  -2           -0.00000 
      1       Li1_2s     Li1_2p_y      5.73837       0   0  -2           -0.00018 
      1     Li1_2p_y     Li1_2p_y      5.73837       0   0  -2           -0.00069 
      1     Li1_2p_z     Li1_2p_y      5.73837       0   0  -2           -0.00003 
      1     Li1_2p_x     Li1_2p_y      5.73837       0   0  -2           -0.00222 
      1       Li1_1s     Li1_2p_z      5.73837       0   0  -2            0.00000 
      1       Li1_2s     Li1_2p_z      5.73837       0   0  -2            0.00000 
      1     Li1_2p_y     Li1_2p_z      5.73837       0   0  -2           -0.00002 
      1     Li1_2p_z     Li1_2p_z      5.73837       0   0  -2           -0.00022 
      1     Li1_2p_x     Li1_2p_z      5.73837       0   0  -2           -0.00001 
      1       Li1_1s     Li1_2p_x      5.73837       0   0  -2            0.00000 
      1       Li1_2s     Li1_2p_x      5.73837       0   0  -2           -0.00022 
      1     Li1_2p_y     Li1_2p_x      5.73837       0   0  -2           -0.00222 
      1     Li1_2p_z     Li1_2p_x      5.73837       0   0  -2           -0.00002 
      1     Li1_2p_x     Li1_2p_x      5.73837       0   0  -2           -0.00064 
      2          Li1          Li1      4.96956       1   0  -2           -0.01089 
      2       Li1_1s       Li1_1s      4.96956       1   0  -2           -0.00001 
      2       Li1_2s       Li1_1s      4.96956       1   0  -2           -0.00009 
      2     Li1_2p_y       Li1_1s      4.96956       1   0  -2           -0.00000 
      2     Li1_2p_z       Li1_1s      4.96956       1   0  -2           -0.00011 
      2     Li1_2p_x       Li1_1s      4.96956       1   0  -2           -0.00064 
      2       Li1_1s       Li1_2s      4.96956       1   0  -2           -0.00009 
      2       Li1_2s       Li1_2s      4.96956       1   0  -2           -0.00005 
      2     Li1_2p_y       Li1_2s      4.96956       1   0  -2           -0.00011 
      2     Li1_2p_z       Li1_2s      4.96956       1   0  -2           -0.00010 
      2     Li1_2p_x       Li1_2s      4.96956       1   0  -2           -0.00028 
      2       Li1_1s     Li1_2p_y      4.96956       1   0  -2           -0.00001 
      2       Li1_2s     Li1_2p_y      4.96956       1   0  -2           -0.00019 
      2     Li1_2p_y     Li1_2p_y      4.96956       1   0  -2           -0.00019 
      2     Li1_2p_z     Li1_2p_y      4.96956       1   0  -2           -0.00063 
      2     Li1_2p_x     Li1_2p_y      4.96956       1   0  -2           -0.00114 
      2       Li1_1s     Li1_2p_z      4.96956       1   0  -2           -0.00025 
      2       Li1_2s     Li1_2p_z      4.96956       1   0  -2           -0.00011 
      2     Li1_2p_y     Li1_2p_z      4.96956       1   0  -2           -0.00064 
      2     Li1_2p_z     Li1_2p_z      4.96956       1   0  -2           -0.00023 
      2     Li1_2p_x     Li1_2p_z      4.96956       1   0  -2           -0.00108 
      2       Li1_1s     Li1_2p_x      4.96956       1   0  -2           -0.00076 
      2       Li1_2s     Li1_2p_x      4.96956       1   0  -2           -0.00037 
      2     Li1_2p_y     Li1_2p_x      4.96956       1   0  -2           -0.00125 
      2     Li1_2p_z     Li1_2p_x      4.96956       1   0  -2           -0.00112 
      2     Li1_2p_x     Li1_2p_x      4.96956       1   0  -2           -0.00145 
      3          Li1          Li1      5.73836       2   0  -2           -0.00850 
      3       Li1_1s       Li1_1s      5.73836       2   0  -2           -0.00007 
      3       Li1_2s       Li1_1s      5.73836       2   0  -2           -0.00010 
      3     Li1_2p_y       Li1_1s      5.73836       2   0  -2           -0.00000 
      3     Li1_2p_z       Li1_1s      5.73836       2   0  -2           -0.00007 
      3     Li1_2p_x       Li1_1s      5.73836       2   0  -2           -0.00009 
      3       Li1_1s       Li1_2s      5.73836       2   0  -2           -0.00012 
      3       Li1_2s       Li1_2s      5.73836       2   0  -2           -0.00009 
      3     Li1_2p_y       Li1_2s      5.73836       2   0  -2           -0.00000 
      3     Li1_2p_z       Li1_2s      5.73836       2   0  -2           -0.00043 
      3     Li1_2p_x       Li1_2s      5.73836       2   0  -2           -0.00047 
      3       Li1_1s     Li1_2p_y      5.73836       2   0  -2           -0.00000 
      3       Li1_2s     Li1_2p_y      5.73836       2   0  -2           -0.00000 
      3     Li1_2p_y     Li1_2p_y      5.73836       2   0  -2           -0.00012 
      3     Li1_2p_z     Li1_2p_y      5.73836       2   0  -2           -0.00001 
      3     Li1_2p_x     Li1_2p_y      5.73836       2   0  -2           -0.00000 
      3       Li1_1s     Li1_2p_z      5.73836       2   0  -2           -0.00009 
      3       Li1_2s     Li1_2p_z      5.73836       2   0  -2           -0.00048 
      3     Li1_2p_y     Li1_2p_z      5.73836       2   0  -2           -0.00000 
      3     Li1_2p_z     Li1_2p_z      5.73836       2   0  -2           -0.00079 
      3     Li1_2p_x     Li1_2p_z      5.73836       2   0  -2           -0.00217 
      3       Li1_1s     Li1_2p_x      5.73836       2   0  -2           -0.00007 
      3       Li1_2s     Li1_2p_x      5.73836       2   0  -2           -0.00042 
      3     Li1_2p_y     Li1_2p_x      5.73836       2   0  -2           -0.00001 
      3     Li1_2p_z     Li1_2p_x      5.73836       2   0  -2           -0.00212 
      3     Li1_2p_x     Li1_2p_x      5.73836       2   0  -2           -0.00079 
      4          Li1          Li1      4.96956       0   1  -2           -0.01105 
      4       Li1_1s       Li1_1s      4.96956       0   1  -2           -0.00000 
      4       Li1_2s       Li1_1s      4.96956       0   1  -2           -0.00005 
      4     Li1_2p_y       Li1_1s      4.96956       0   1  -2           -0.00063 
      4     Li1_2p_z       Li1_1s      4.96956       0   1  -2           -0.00008 
      4     Li1_2p_x       Li1_1s      4.96956       0   1  -2           -0.00001 
      4       Li1_1s       Li1_2s      4.96956       0   1  -2           -0.00009 
      4       Li1_2s       Li1_2s      4.96956       0   1  -2           -0.00004 
      4     Li1_2p_y       Li1_2s      4.96956       0   1  -2           -0.00029 
      4     Li1_2p_z       Li1_2s      4.96956       0   1  -2           -0.00013 
      4     Li1_2p_x       Li1_2s      4.96956       0   1  -2           -0.00013 
      4       Li1_1s     Li1_2p_y      4.96956       0   1  -2           -0.00073 
      4       Li1_2s     Li1_2p_y      4.96956       0   1  -2           -0.00038 
      4     Li1_2p_y     Li1_2p_y      4.96956       0   1  -2           -0.00153 
      4     Li1_2p_z     Li1_2p_y      4.96956       0   1  -2           -0.00122 
      4     Li1_2p_x     Li1_2p_y      4.96956       0   1  -2           -0.00125 
      4       Li1_1s     Li1_2p_z      4.96956       0   1  -2           -0.00021 
      4       Li1_2s     Li1_2p_z      4.96956       0   1  -2           -0.00015 
      4     Li1_2p_y     Li1_2p_z      4.96956       0   1  -2           -0.00115 
      4     Li1_2p_z     Li1_2p_z      4.96956       0   1  -2           -0.00022 
      4     Li1_2p_x     Li1_2p_z      4.96956       0   1  -2           -0.00059 
      4       Li1_1s     Li1_2p_x      4.96956       0   1  -2           -0.00000 
      4       Li1_2s     Li1_2p_x      4.96956       0   1  -2           -0.00021 
      4     Li1_2p_y     Li1_2p_x      4.96956       0   1  -2           -0.00114 
      4     Li1_2p_z     Li1_2p_x      4.96956       0   1  -2           -0.00060 
      4     Li1_2p_x     Li1_2p_x      4.96956       0   1  -2           -0.00021 
      5          Li1          Li1      4.96956       1   1  -2           -0.01224 
      5       Li1_1s       Li1_1s      4.96956       1   1  -2           -0.00000 
      5       Li1_2s       Li1_1s      4.96956       1   1  -2           -0.00002 
      5     Li1_2p_y       Li1_1s      4.96956       1   1  -2           -0.00004 
      5     Li1_2p_z       Li1_1s      4.96956       1   1  -2           -0.00115 
      5     Li1_2p_x       Li1_1s      4.96956       1   1  -2           -0.00004 
      5       Li1_1s       Li1_2s      4.96956       1   1  -2            0.00000 
      5       Li1_2s       Li1_2s      4.96956       1   1  -2            0.00003 
      5     Li1_2p_y       Li1_2s      4.96956       1   1  -2           -0.00015 
      5     Li1_2p_z       Li1_2s      4.96956       1   1  -2           -0.00044 
      5     Li1_2p_x       Li1_2s      4.96956       1   1  -2           -0.00015 
      5       Li1_1s     Li1_2p_y      4.96956       1   1  -2           -0.00009 
      5       Li1_2s     Li1_2p_y      4.96956       1   1  -2           -0.00023 
      5     Li1_2p_y     Li1_2p_y      4.96956       1   1  -2           -0.00016 
      5     Li1_2p_z     Li1_2p_y      4.96956       1   1  -2           -0.00093 
      5     Li1_2p_x     Li1_2p_y      4.96956       1   1  -2           -0.00092 
      5       Li1_1s     Li1_2p_z      4.96956       1   1  -2           -0.00153 
      5       Li1_2s     Li1_2p_z      4.96956       1   1  -2           -0.00048 
      5     Li1_2p_y     Li1_2p_z      4.96956       1   1  -2           -0.00099 
      5     Li1_2p_z     Li1_2p_z      4.96956       1   1  -2           -0.00171 
      5     Li1_2p_x     Li1_2p_z      4.96956       1   1  -2           -0.00091 
      5       Li1_1s     Li1_2p_x      4.96956       1   1  -2           -0.00010 
      5       Li1_2s     Li1_2p_x      4.96956       1   1  -2           -0.00023 
      5     Li1_2p_y     Li1_2p_x      4.96956       1   1  -2           -0.00092 
      5     Li1_2p_z     Li1_2p_x      4.96956       1   1  -2           -0.00086 
      5     Li1_2p_x     Li1_2p_x      4.96956       1   1  -2           -0.00020 
      6          Li1          Li1      5.73836       0   2  -2           -0.00869 
      6       Li1_1s       Li1_1s      5.73836       0   2  -2           -0.00006 
      6       Li1_2s       Li1_1s      5.73836       0   2  -2           -0.00008 
      6     Li1_2p_y       Li1_1s      5.73836       0   2  -2           -0.00007 
      6     Li1_2p_z       Li1_1s      5.73836       0   2  -2           -0.00003 
      6     Li1_2p_x       Li1_1s      5.73836       0   2  -2           -0.00001 
      6       Li1_1s       Li1_2s      5.73836       0   2  -2           -0.00006 
      6       Li1_2s       Li1_2s      5.73836       0   2  -2           -0.00007 
      6     Li1_2p_y       Li1_2s      5.73836       0   2  -2           -0.00053 
      6     Li1_2p_z       Li1_2s      5.73836       0   2  -2           -0.00053 
      6     Li1_2p_x       Li1_2s      5.73836       0   2  -2            0.00000 
      6       Li1_1s     Li1_2p_y      5.73836       0   2  -2           -0.00005 
      6       Li1_2s     Li1_2p_y      5.73836       0   2  -2           -0.00048 
      6     Li1_2p_y     Li1_2p_y      5.73836       0   2  -2           -0.00080 
      6     Li1_2p_z     Li1_2p_y      5.73836       0   2  -2           -0.00216 
      6     Li1_2p_x     Li1_2p_y      5.73836       0   2  -2           -0.00001 
      6       Li1_1s     Li1_2p_z      5.73836       0   2  -2           -0.00006 
      6       Li1_2s     Li1_2p_z      5.73836       0   2  -2           -0.00058 
      6     Li1_2p_y     Li1_2p_z      5.73836       0   2  -2           -0.00217 
      6     Li1_2p_z     Li1_2p_z      5.73836       0   2  -2           -0.00075 
      6     Li1_2p_x     Li1_2p_z      5.73836       0   2  -2           -0.00001 
      6       Li1_1s     Li1_2p_x      5.73836       0   2  -2           -0.00000 
      6       Li1_2s     Li1_2p_x      5.73836       0   2  -2           -0.00000 
      6     Li1_2p_y     Li1_2p_x      5.73836       0   2  -2           -0.00000 
      6     Li1_2p_z     Li1_2p_x      5.73836       0   2  -2           -0.00002 
      6     Li1_2p_x     Li1_2p_x      5.73836       0   2  -2           -0.00014 
      7          Li1          Li1      4.96957       0  -1  -1           -0.00959 
      7       Li1_1s       Li1_1s      4.96957       0  -1  -1           -0.00006 
      7       Li1_2s       Li1_1s      4.96957       0  -1  -1           -0.00025 
      7     Li1_2p_y       Li1_1s      4.96957       0  -1  -1           -0.00006 
      7     Li1_2p_z       Li1_1s      4.96957       0  -1  -1           -0.00008 
      7     Li1_2p_x       Li1_1s      4.96957       0  -1  -1           -0.00086 
      7       Li1_1s       Li1_2s      4.96957       0  -1  -1           -0.00099 
      7       Li1_2s       Li1_2s      4.96957       0  -1  -1           -0.00008 
      7     Li1_2p_y       Li1_2s      4.96957       0  -1  -1           -0.00005 
      7     Li1_2p_z       Li1_2s      4.96957       0  -1  -1           -0.00003 
      7     Li1_2p_x       Li1_2s      4.96957       0  -1  -1           -0.00011 
      7       Li1_1s     Li1_2p_y      4.96957       0  -1  -1           -0.00001 
      7       Li1_2s     Li1_2p_y      4.96957       0  -1  -1           -0.00004 
      7     Li1_2p_y     Li1_2p_y      4.96957       0  -1  -1           -0.00027 
      7     Li1_2p_z     Li1_2p_y      4.96957       0  -1  -1           -0.00040 
      7     Li1_2p_x     Li1_2p_y      4.96957       0  -1  -1           -0.00084 
      7       Li1_1s     Li1_2p_z      4.96957       0  -1  -1           -0.00002 
      7       Li1_2s     Li1_2p_z      4.96957       0  -1  -1           -0.00003 
      7     Li1_2p_y     Li1_2p_z      4.96957       0  -1  -1           -0.00040 
      7     Li1_2p_z     Li1_2p_z      4.96957       0  -1  -1           -0.00026 
      7     Li1_2p_x     Li1_2p_z      4.96957       0  -1  -1           -0.00081 
      7       Li1_1s     Li1_2p_x      4.96957       0  -1  -1           -0.00075 
      7       Li1_2s     Li1_2p_x      4.96957       0  -1  -1           -0.00010 
      7     Li1_2p_y     Li1_2p_x      4.96957       0  -1  -1           -0.00082 
      7     Li1_2p_z     Li1_2p_x      4.96957       0  -1  -1           -0.00079 
      7     Li1_2p_x     Li1_2p_x      4.96957       0  -1  -1           -0.00147 
      8          Li1          Li1      4.05763       1  -1  -1           -0.04161 
      8       Li1_1s       Li1_1s      4.05763       1  -1  -1           -0.00027 
      8       Li1_2s       Li1_1s      4.05763       1  -1  -1           -0.00000 
      8     Li1_2p_y       Li1_1s      4.05763       1  -1  -1           -0.00006 
      8     Li1_2p_z       Li1_1s      4.05763       1  -1  -1           -0.00004 
      8     Li1_2p_x       Li1_1s      4.05763       1  -1  -1           -0.01477 
      8       Li1_1s       Li1_2s      4.05763       1  -1  -1            0.00003 
      8       Li1_2s       Li1_2s      4.05763       1  -1  -1            0.00015 
      8     Li1_2p_y       Li1_2s      4.05763       1  -1  -1            0.00001 
      8     Li1_2p_z       Li1_2s      4.05763       1  -1  -1            0.00001 
      8     Li1_2p_x       Li1_2s      4.05763       1  -1  -1           -0.00107 
      8       Li1_1s     Li1_2p_y      4.05763       1  -1  -1           -0.00007 
      8       Li1_2s     Li1_2p_y      4.05763       1  -1  -1            0.00000 
      8     Li1_2p_y     Li1_2p_y      4.05763       1  -1  -1           -0.00109 
      8     Li1_2p_z     Li1_2p_y      4.05763       1  -1  -1           -0.00000 
      8     Li1_2p_x     Li1_2p_y      4.05763       1  -1  -1            0.00000 
      8       Li1_1s     Li1_2p_z      4.05763       1  -1  -1           -0.00006 
      8       Li1_2s     Li1_2p_z      4.05763       1  -1  -1            0.00001 
      8     Li1_2p_y     Li1_2p_z      4.05763       1  -1  -1           -0.00000 
      8     Li1_2p_z     Li1_2p_z      4.05763       1  -1  -1           -0.00118 
      8     Li1_2p_x     Li1_2p_z      4.05763       1  -1  -1           -0.00000 
      8       Li1_1s     Li1_2p_x      4.05763       1  -1  -1           -0.01442 
      8       Li1_2s     Li1_2p_x      4.05763       1  -1  -1           -0.00101 
      8     Li1_2p_y     Li1_2p_x      4.05763       1  -1  -1           -0.00000 
      8     Li1_2p_z     Li1_2p_x      4.05763       1  -1  -1           -0.00000 
      8     Li1_2p_x     Li1_2p_x      4.05763       1  -1  -1           -0.00778 
      9          Li1          Li1      4.96956       2  -1  -1           -0.01222 
      9       Li1_1s       Li1_1s      4.96956       2  -1  -1           -0.00000 
      9       Li1_2s       Li1_1s      4.96956       2  -1  -1            0.00000 
      9     Li1_2p_y       Li1_1s      4.96956       2  -1  -1           -0.00009 
      9     Li1_2p_z       Li1_1s      4.96956       2  -1  -1           -0.00010 
      9     Li1_2p_x       Li1_1s      4.96956       2  -1  -1           -0.00151 
      9       Li1_1s       Li1_2s      4.96956       2  -1  -1           -0.00002 
      9       Li1_2s       Li1_2s      4.96956       2  -1  -1            0.00003 
      9     Li1_2p_y       Li1_2s      4.96956       2  -1  -1           -0.00024 
      9     Li1_2p_z       Li1_2s      4.96956       2  -1  -1           -0.00023 
      9     Li1_2p_x       Li1_2s      4.96956       2  -1  -1           -0.00048 
      9       Li1_1s     Li1_2p_y      4.96956       2  -1  -1           -0.00004 
      9       Li1_2s     Li1_2p_y      4.96956       2  -1  -1           -0.00016 
      9     Li1_2p_y     Li1_2p_y      4.96956       2  -1  -1           -0.00016 
      9     Li1_2p_z     Li1_2p_y      4.96956       2  -1  -1           -0.00092 
      9     Li1_2p_x     Li1_2p_y      4.96956       2  -1  -1           -0.00100 
      9       Li1_1s     Li1_2p_z      4.96956       2  -1  -1           -0.00005 
      9       Li1_2s     Li1_2p_z      4.96956       2  -1  -1           -0.00015 
      9     Li1_2p_y     Li1_2p_z      4.96956       2  -1  -1           -0.00093 
      9     Li1_2p_z     Li1_2p_z      4.96956       2  -1  -1           -0.00019 
      9     Li1_2p_x     Li1_2p_z      4.96956       2  -1  -1           -0.00093 
      9       Li1_1s     Li1_2p_x      4.96956       2  -1  -1           -0.00117 
      9       Li1_2s     Li1_2p_x      4.96956       2  -1  -1           -0.00044 
      9     Li1_2p_y     Li1_2p_x      4.96956       2  -1  -1           -0.00091 
      9     Li1_2p_z     Li1_2p_x      4.96956       2  -1  -1           -0.00084 
      9     Li1_2p_x     Li1_2p_x      4.96956       2  -1  -1           -0.00170 
     10          Li1          Li1      4.96957      -1   0  -1           -0.00930 
     10       Li1_1s       Li1_1s      4.96957      -1   0  -1           -0.00004 
     10       Li1_2s       Li1_1s      4.96957      -1   0  -1           -0.00018 
     10     Li1_2p_y       Li1_1s      4.96957      -1   0  -1           -0.00092 
     10     Li1_2p_z       Li1_1s      4.96957      -1   0  -1           -0.00006 
     10     Li1_2p_x       Li1_1s      4.96957      -1   0  -1           -0.00006 
     10       Li1_1s       Li1_2s      4.96957      -1   0  -1           -0.00086 
     10       Li1_2s       Li1_2s      4.96957      -1   0  -1           -0.00007 
     10     Li1_2p_y       Li1_2s      4.96957      -1   0  -1           -0.00009 
     10     Li1_2p_z       Li1_2s      4.96957      -1   0  -1           -0.00005 
     10     Li1_2p_x       Li1_2s      4.96957      -1   0  -1           -0.00004 
     10       Li1_1s     Li1_2p_y      4.96957      -1   0  -1           -0.00082 
     10       Li1_2s     Li1_2p_y      4.96957      -1   0  -1           -0.00008 
     10     Li1_2p_y     Li1_2p_y      4.96957      -1   0  -1           -0.00143 
     10     Li1_2p_z     Li1_2p_y      4.96957      -1   0  -1           -0.00081 
     10     Li1_2p_x     Li1_2p_y      4.96957      -1   0  -1           -0.00082 
     10       Li1_1s     Li1_2p_z      4.96957      -1   0  -1           -0.00001 
     10       Li1_2s     Li1_2p_z      4.96957      -1   0  -1           -0.00005 
     10     Li1_2p_y     Li1_2p_z      4.96957      -1   0  -1           -0.00085 
     10     Li1_2p_z     Li1_2p_z      4.96957      -1   0  -1           -0.00023 
     10     Li1_2p_x     Li1_2p_z      4.96957      -1   0  -1           -0.00036 
     10       Li1_1s     Li1_2p_x      4.96957      -1   0  -1           -0.00001 
     10       Li1_2s     Li1_2p_x      4.96957      -1   0  -1           -0.00004 
     10     Li1_2p_y     Li1_2p_x      4.96957      -1   0  -1           -0.00084 
     10     Li1_2p_z     Li1_2p_x      4.96957      -1   0  -1           -0.00035 
     10     Li1_2p_x     Li1_2p_x      4.96957      -1   0  -1           -0.00024 
     11          Li1          Li1      2.86918       0   0  -1           -0.48121 
     11       Li1_1s       Li1_1s      2.86918       0   0  -1           -0.00342 
     11       Li1_2s       Li1_1s      2.86918       0   0  -1           -0.00188 
     11     Li1_2p_y       Li1_1s      2.86918       0   0  -1           -0.03960 
     11     Li1_2p_z       Li1_1s      2.86918       0   0  -1           -0.00004 
     11     Li1_2p_x       Li1_1s      2.86918       0   0  -1           -0.03916 
     11       Li1_1s       Li1_2s      2.86918       0   0  -1           -0.00105 
     11       Li1_2s       Li1_2s      2.86918       0   0  -1           -0.01210 
     11     Li1_2p_y       Li1_2s      2.86918       0   0  -1           -0.03490 
     11     Li1_2p_z       Li1_2s      2.86918       0   0  -1            0.00003 
     11     Li1_2p_x       Li1_2s      2.86918       0   0  -1           -0.03536 
     11       Li1_1s     Li1_2p_y      2.86918       0   0  -1           -0.03891 
     11       Li1_2s     Li1_2p_y      2.86918       0   0  -1           -0.03543 
     11     Li1_2p_y     Li1_2p_y      2.86918       0   0  -1           -0.00704 
     11     Li1_2p_z     Li1_2p_y      2.86918       0   0  -1            0.00000 
     11     Li1_2p_x     Li1_2p_y      2.86918       0   0  -1           -0.06399 
     11       Li1_1s     Li1_2p_z      2.86918       0   0  -1           -0.00017 
     11       Li1_2s     Li1_2p_z      2.86918       0   0  -1            0.00002 
     11     Li1_2p_y     Li1_2p_z      2.86918       0   0  -1            0.00000 
     11     Li1_2p_z     Li1_2p_z      2.86918       0   0  -1           -0.02279 
     11     Li1_2p_x     Li1_2p_z      2.86918       0   0  -1            0.00000 
     11       Li1_1s     Li1_2p_x      2.86918       0   0  -1           -0.03847 
     11       Li1_2s     Li1_2p_x      2.86918       0   0  -1           -0.03588 
     11     Li1_2p_y     Li1_2p_x      2.86918       0   0  -1           -0.06399 
     11     Li1_2p_z     Li1_2p_x      2.86918       0   0  -1            0.00000 
     11     Li1_2p_x     Li1_2p_x      2.86918       0   0  -1           -0.00709 
     12          Li1          Li1      2.86918       1   0  -1           -0.50035 
     12       Li1_1s       Li1_1s      2.86918       1   0  -1           -0.00267 
     12       Li1_2s       Li1_1s      2.86918       1   0  -1           -0.00299 
     12     Li1_2p_y       Li1_1s      2.86918       1   0  -1           -0.00000 
     12     Li1_2p_z       Li1_1s      2.86918       1   0  -1           -0.04354 
     12     Li1_2p_x       Li1_1s      2.86918       1   0  -1           -0.04490 
     12       Li1_1s       Li1_2s      2.86918       1   0  -1           -0.00308 
     12       Li1_2s       Li1_2s      2.86918       1   0  -1           -0.01300 
     12     Li1_2p_y       Li1_2s      2.86918       1   0  -1            0.00000 
     12     Li1_2p_z       Li1_2s      2.86918       1   0  -1           -0.03627 
     12     Li1_2p_x       Li1_2s      2.86918       1   0  -1           -0.03580 
     12       Li1_1s     Li1_2p_y      2.86918       1   0  -1           -0.00000 
     12       Li1_2s     Li1_2p_y      2.86918       1   0  -1            0.00000 
     12     Li1_2p_y     Li1_2p_y      2.86918       1   0  -1           -0.02225 
     12     Li1_2p_z     Li1_2p_y      2.86918       1   0  -1           -0.00004 
     12     Li1_2p_x     Li1_2p_y      2.86918       1   0  -1           -0.00003 
     12       Li1_1s     Li1_2p_z      2.86918       1   0  -1           -0.04500 
     12       Li1_2s     Li1_2p_z      2.86918       1   0  -1           -0.03579 
     12     Li1_2p_y     Li1_2p_z      2.86918       1   0  -1           -0.00003 
     12     Li1_2p_z     Li1_2p_z      2.86918       1   0  -1           -0.00764 
     12     Li1_2p_x     Li1_2p_z      2.86918       1   0  -1           -0.05992 
     12       Li1_1s     Li1_2p_x      2.86918       1   0  -1           -0.04364 
     12       Li1_2s     Li1_2p_x      2.86918       1   0  -1           -0.03624 
     12     Li1_2p_y     Li1_2p_x      2.86918       1   0  -1           -0.00004 
     12     Li1_2p_z     Li1_2p_x      2.86918       1   0  -1           -0.05986 
     12     Li1_2p_x     Li1_2p_x      2.86918       1   0  -1           -0.00763 
     13          Li1          Li1      4.96956       2   0  -1           -0.01090 
     13       Li1_1s       Li1_1s      4.96956       2   0  -1           -0.00001 
     13       Li1_2s       Li1_1s      4.96956       2   0  -1           -0.00012 
     13     Li1_2p_y       Li1_1s      4.96956       2   0  -1           -0.00001 
     13     Li1_2p_z       Li1_1s      4.96956       2   0  -1           -0.00074 
     13     Li1_2p_x       Li1_1s      4.96956       2   0  -1           -0.00024 
     13       Li1_1s       Li1_2s      4.96956       2   0  -1           -0.00007 
     13       Li1_2s       Li1_2s      4.96956       2   0  -1           -0.00005 
     13     Li1_2p_y       Li1_2s      4.96956       2   0  -1           -0.00019 
     13     Li1_2p_z       Li1_2s      4.96956       2   0  -1           -0.00037 
     13     Li1_2p_x       Li1_2s      4.96956       2   0  -1           -0.00012 
     13       Li1_1s     Li1_2p_y      4.96956       2   0  -1           -0.00000 
     13       Li1_2s     Li1_2p_y      4.96956       2   0  -1           -0.00011 
     13     Li1_2p_y     Li1_2p_y      4.96956       2   0  -1           -0.00019 
     13     Li1_2p_z     Li1_2p_y      4.96956       2   0  -1           -0.00125 
     13     Li1_2p_x     Li1_2p_y      4.96956       2   0  -1           -0.00064 
     13       Li1_1s     Li1_2p_z      4.96956       2   0  -1           -0.00065 
     13       Li1_2s     Li1_2p_z      4.96956       2   0  -1           -0.00028 
     13     Li1_2p_y     Li1_2p_z      4.96956       2   0  -1           -0.00114 
     13     Li1_2p_z     Li1_2p_z      4.96956       2   0  -1           -0.00146 
     13     Li1_2p_x     Li1_2p_z      4.96956       2   0  -1           -0.00109 
     13       Li1_1s     Li1_2p_x      4.96956       2   0  -1           -0.00011 
     13       Li1_2s     Li1_2p_x      4.96956       2   0  -1           -0.00010 
     13     Li1_2p_y     Li1_2p_x      4.96956       2   0  -1           -0.00062 
     13     Li1_2p_z     Li1_2p_x      4.96956       2   0  -1           -0.00111 
     13     Li1_2p_x     Li1_2p_x      4.96956       2   0  -1           -0.00023 
     14          Li1          Li1      4.05763      -1   1  -1           -0.04191 
     14       Li1_1s       Li1_1s      4.05763      -1   1  -1           -0.00019 
     14       Li1_2s       Li1_1s      4.05763      -1   1  -1           -0.00014 
     14     Li1_2p_y       Li1_1s      4.05763      -1   1  -1           -0.01502 
     14     Li1_2p_z       Li1_1s      4.05763      -1   1  -1           -0.00006 
     14     Li1_2p_x       Li1_1s      4.05763      -1   1  -1           -0.00005 
     14       Li1_1s       Li1_2s      4.05763      -1   1  -1            0.00002 
     14       Li1_2s       Li1_2s      4.05763      -1   1  -1            0.00019 
     14     Li1_2p_y       Li1_2s      4.05763      -1   1  -1           -0.00100 
     14     Li1_2p_z       Li1_2s      4.05763      -1   1  -1            0.00001 
     14     Li1_2p_x       Li1_2s      4.05763      -1   1  -1            0.00001 
     14       Li1_1s     Li1_2p_y      4.05763      -1   1  -1           -0.01462 
     14       Li1_2s     Li1_2p_y      4.05763      -1   1  -1           -0.00094 
     14     Li1_2p_y     Li1_2p_y      4.05763      -1   1  -1           -0.00797 
     14     Li1_2p_z     Li1_2p_y      4.05763      -1   1  -1           -0.00000 
     14     Li1_2p_x     Li1_2p_y      4.05763      -1   1  -1           -0.00000 
     14       Li1_1s     Li1_2p_z      4.05763      -1   1  -1           -0.00007 
     14       Li1_2s     Li1_2p_z      4.05763      -1   1  -1            0.00000 
     14     Li1_2p_y     Li1_2p_z      4.05763      -1   1  -1            0.00000 
     14     Li1_2p_z     Li1_2p_z      4.05763      -1   1  -1           -0.00101 
     14     Li1_2p_x     Li1_2p_z      4.05763      -1   1  -1            0.00000 
     14       Li1_1s     Li1_2p_x      4.05763      -1   1  -1           -0.00008 