  12  12   0   0
  0.1021495E+02  0.2869097E-09  0.4604828E-09  0.9278097E-09  0.5000000E-15
  1.000000000000000E-004
  CAR 
 unknown system                          
      9.86981634    -49.10766715  301      4.02121589      1.00000000
    -49.108  0.0000E+00  0.0000E+00  0.0000E+00  0.0000E+00
    -48.911  0.0000E+00  0.0000E+00  0.0000E+00  0.0000E+00
    -48.714  0.0000E+00  0.0000E+00  0.0000E+00  0.0000E+00
    -48.518  0.0000E+00  0.0000E+00  0.0000E+00  0.0000E+00
    -48.321  0.0000E+00  0.0000E+00  0.0000E+00  0.0000E+00
    -48.125  0.0000E+00  0.0000E+00  0.0000E+00  0.0000E+00
    -47.928  0.0000E+00  0.0000E+00  0.0000E+00  0.0000E+00
    -47.732  0.0000E+00  0.0000E+00  0.0000E+00  0.0000E+00
    -47.535  0.0000E+00  0.0000E+00  0.0000E+00  0.0000E+00
    -47.338  0.0000E+00  0.0000E+00  0.0000E+00  0.0000E+00
    -47.142  0.0000E+00  0.0000E+00  0.0000E+00  0.0000E+00
    -46.945  0.0000E+00  0.0000E+00  0.0000E+00  0.0000E+00
    -46.749  0.0000E+00  0.0000E+00  0.0000E+00  0.0000E+00
    -46.552  0.0000E+00  0.0000E+00  0.0000E+00  0.0000E+00
    -46.355  0.6318E+01  0.6326E+01  0.1242E+01  0.1244E+01
    -46.159  0.1017E+02  0.1017E+02  0.5999E+01  0.5999E+01
    -45.962  0.0000E+00  0.0000E+00  0.6000E+01  0.6000E+01
    -45.766  0.0000E+00  0.0000E+00  0.6000E+01  0.6000E+01
    -45.569  0.0000E+00  0.0000E+00  0.6000E+01  0.6000E+01
    -45.372  0.0000E+00  0.0000E+00  0.6000E+01  0.6000E+01
    -45.176  0.0000E+00  0.0000E+00  0.6000E+01  0.6000E+01
    -44.979  0.0000E+00  0.0000E+00  0.6000E+01  0.6000E+01
    -44.783  0.0000E+00  0.0000E+00  0.6000E+01  0.6000E+01
    -44.586  0.0000E+00  0.0000E+00  0.6000E+01  0.6000E+01
    -44.389  0.0000E+00  0.0000E+00  0.6000E+01  0.6000E+01
    -44.193  0.0000E+00  0.0000E+00  0.6000E+01  0.6000E+01
    -43.996  0.0000E+00  0.0000E+00  0.6000E+01  0.6000E+01
    -43.800  0.0000E+00  0.0000E+00  0.6000E+01  0.6000E+01
    -43.603  0.6170E-05  0.5788E-05  0.6000E+01  0.6000E+01
    -43.407  0.1079E+02  0.1077E+02  0.9522E+01  0.9518E+01
    -43.210  0.7121E+01  0.7121E+01  0.1200E+02  0.1200E+02
    -43.013  0.0000E+00  0.0000E+00  0.1200E+02  0.1200E+02
    -42.817  0.0000E+00  0.0000E+00  0.1200E+02  0.1200E+02
    -42.620  0.0000E+00  0.0000E+00  0.1200E+02  0.1200E+02
    -42.424  0.0000E+00  0.0000E+00  0.1200E+02  0.1200E+02
    -42.227  0.0000E+00  0.0000E+00  0.1200E+02  0.1200E+02
    -42.030  0.0000E+00  0.0000E+00  0.1200E+02  0.1200E+02
    -41.834  0.0000E+00  0.0000E+00  0.1200E+02  0.1200E+02
    -41.637  0.0000E+00  0.0000E+00  0.1200E+02  0.1200E+02
    -41.441  0.0000E+00  0.0000E+00  0.1200E+02  0.1200E+02
    -41.244  0.0000E+00  0.0000E+00  0.1200E+02  0.1200E+02
    -41.047  0.0000E+00  0.0000E+00  0.1200E+02  0.1200E+02
    -40.851  0.0000E+00  0.0000E+00  0.1200E+02  0.1200E+02
    -40.654  0.0000E+00  0.0000E+00  0.1200E+02  0.1200E+02
    -40.458  0.0000E+00  0.0000E+00  0.1200E+02  0.1200E+02
    -40.261  0.0000E+00  0.0000E+00  0.1200E+02  0.1200E+02
    -40.064  0.0000E+00  0.0000E+00  0.1200E+02  0.1200E+02
    -39.868  0.0000E+00  0.0000E+00  0.1200E+02  0.1200E+02
    -39.671  0.0000E+00  0.0000E+00  0.1200E+02  0.1200E+02
    -39.475  0.0000E+00  0.0000E+00  0.1200E+02  0.1200E+02
    -39.278  0.0000E+00  0.0000E+00  0.1200E+02  0.1200E+02
    -39.081  0.0000E+00  0.0000E+00  0.1200E+02  0.1200E+02
    -38.885  0.0000E+00  0.0000E+00  0.1200E+02  0.1200E+02
    -38.688  0.0000E+00  0.0000E+00  0.1200E+02  0.1200E+02
    -38.492  0.0000E+00  0.0000E+00  0.1200E+02  0.1200E+02
    -38.295  0.0000E+00  0.0000E+00  0.1200E+02  0.1200E+02
    -38.099  0.0000E+00  0.0000E+00  0.1200E+02  0.1200E+02
    -37.902  0.0000E+00  0.0000E+00  0.1200E+02  0.1200E+02
    -37.705  0.0000E+00  0.0000E+00  0.1200E+02  0.1200E+02
    -37.509  0.0000E+00  0.0000E+00  0.1200E+02  0.1200E+02
    -37.312  0.0000E+00  0.0000E+00  0.1200E+02  0.1200E+02
    -37.116  0.0000E+00  0.0000E+00  0.1200E+02  0.1200E+02
    -36.919  0.0000E+00  0.0000E+00  0.1200E+02  0.1200E+02
    -36.722  0.0000E+00  0.0000E+00  0.1200E+02  0.1200E+02
    -36.526  0.0000E+00  0.0000E+00  0.1200E+02  0.1200E+02
    -36.329  0.0000E+00  0.0000E+00  0.1200E+02  0.1200E+02
    -36.133  0.0000E+00  0.0000E+00  0.1200E+02  0.1200E+02
    -35.936  0.0000E+00  0.0000E+00  0.1200E+02  0.1200E+02
    -35.739  0.0000E+00  0.0000E+00  0.1200E+02  0.1200E+02
    -35.543  0.0000E+00  0.0000E+00  0.1200E+02  0.1200E+02
    -35.346  0.0000E+00  0.0000E+00  0.1200E+02  0.1200E+02
    -35.150  0.0000E+00  0.0000E+00  0.1200E+02  0.1200E+02
    -34.953  0.0000E+00  0.0000E+00  0.1200E+02  0.1200E+02
    -34.756  0.0000E+00  0.0000E+00  0.1200E+02  0.1200E+02
    -34.560  0.0000E+00  0.0000E+00  0.1200E+02  0.1200E+02
    -34.363  0.0000E+00  0.0000E+00  0.1200E+02  0.1200E+02
    -34.167  0.0000E+00  0.0000E+00  0.1200E+02  0.1200E+02
    -33.970  0.0000E+00  0.0000E+00  0.1200E+02  0.1200E+02
    -33.774  0.0000E+00  0.0000E+00  0.1200E+02  0.1200E+02
    -33.577  0.0000E+00  0.0000E+00  0.1200E+02  0.1200E+02
    -33.380  0.0000E+00  0.0000E+00  0.1200E+02  0.1200E+02
    -33.184  0.0000E+00  0.0000E+00  0.1200E+02  0.1200E+02
    -32.987  0.0000E+00  0.0000E+00  0.1200E+02  0.1200E+02
    -32.791  0.0000E+00  0.0000E+00  0.1200E+02  0.1200E+02
    -32.594  0.0000E+00  0.0000E+00  0.1200E+02  0.1200E+02
    -32.397  0.0000E+00  0.0000E+00  0.1200E+02  0.1200E+02
    -32.201  0.0000E+00  0.0000E+00  0.1200E+02  0.1200E+02
    -32.004  0.0000E+00  0.0000E+00  0.1200E+02  0.1200E+02
    -31.808  0.0000E+00  0.0000E+00  0.1200E+02  0.1200E+02
    -31.611  0.0000E+00  0.0000E+00  0.1200E+02  0.1200E+02
    -31.414  0.0000E+00  0.0000E+00  0.1200E+02  0.1200E+02
    -31.218  0.0000E+00  0.0000E+00  0.1200E+02  0.1200E+02
    -31.021  0.0000E+00  0.0000E+00  0.1200E+02  0.1200E+02
    -30.825  0.0000E+00  0.0000E+00  0.1200E+02  0.1200E+02
    -30.628  0.0000E+00  0.0000E+00  0.1200E+02  0.1200E+02
    -30.431  0.0000E+00  0.0000E+00  0.1200E+02  0.1200E+02
    -30.235  0.0000E+00  0.0000E+00  0.1200E+02  0.1200E+02
    -30.038  0.0000E+00  0.0000E+00  0.1200E+02  0.1200E+02
    -29.842  0.0000E+00  0.0000E+00  0.1200E+02  0.1200E+02
    -29.645  0.0000E+00  0.0000E+00  0.1200E+02  0.1200E+02
    -29.449  0.0000E+00  0.0000E+00  0.1200E+02  0.1200E+02
    -29.252  0.0000E+00  0.0000E+00  0.1200E+02  0.1200E+02
    -29.055  0.0000E+00  0.0000E+00  0.1200E+02  0.1200E+02
    -28.859  0.0000E+00  0.0000E+00  0.1200E+02  0.1200E+02
    -28.662  0.0000E+00  0.0000E+00  0.1200E+02  0.1200E+02
    -28.466  0.0000E+00  0.0000E+00  0.1200E+02  0.1200E+02
    -28.269  0.0000E+00  0.0000E+00  0.1200E+02  0.1200E+02
    -28.072  0.0000E+00  0.0000E+00  0.1200E+02  0.1200E+02
    -27.876  0.0000E+00  0.0000E+00  0.1200E+02  0.1200E+02
    -27.679  0.0000E+00  0.0000E+00  0.1200E+02  0.1200E+02
    -27.483  0.0000E+00  0.0000E+00  0.1200E+02  0.1200E+02
    -27.286  0.0000E+00  0.0000E+00  0.1200E+02  0.1200E+02
    -27.089  0.0000E+00  0.0000E+00  0.1200E+02  0.1200E+02
    -26.893  0.0000E+00  0.0000E+00  0.1200E+02  0.1200E+02
    -26.696  0.0000E+00  0.0000E+00  0.1200E+02  0.1200E+02
    -26.500  0.0000E+00  0.0000E+00  0.1200E+02  0.1200E+02
    -26.303  0.0000E+00  0.0000E+00  0.1200E+02  0.1200E+02
    -26.106  0.0000E+00  0.0000E+00  0.1200E+02  0.1200E+02
    -25.910  0.0000E+00  0.0000E+00  0.1200E+02  0.1200E+02
    -25.713  0.0000E+00  0.0000E+00  0.1200E+02  0.1200E+02
    -25.517  0.0000E+00  0.0000E+00  0.1200E+02  0.1200E+02
    -25.320  0.0000E+00  0.0000E+00  0.1200E+02  0.1200E+02
    -25.123  0.0000E+00  0.0000E+00  0.1200E+02  0.1200E+02
    -24.927  0.0000E+00  0.0000E+00  0.1200E+02  0.1200E+02
    -24.730  0.0000E+00  0.0000E+00  0.1200E+02  0.1200E+02
    -24.534  0.0000E+00  0.0000E+00  0.1200E+02  0.1200E+02
    -24.337  0.0000E+00  0.0000E+00  0.1200E+02  0.1200E+02
    -24.141  0.0000E+00  0.0000E+00  0.1200E+02  0.1200E+02
    -23.944  0.0000E+00  0.0000E+00  0.1200E+02  0.1200E+02
    -23.747  0.0000E+00  0.0000E+00  0.1200E+02  0.1200E+02
    -23.551  0.0000E+00  0.0000E+00  0.1200E+02  0.1200E+02
    -23.354  0.0000E+00  0.0000E+00  0.1200E+02  0.1200E+02
    -23.158  0.0000E+00  0.0000E+00  0.1200E+02  0.1200E+02
    -22.961  0.0000E+00  0.0000E+00  0.1200E+02  0.1200E+02
    -22.764  0.0000E+00  0.0000E+00  0.1200E+02  0.1200E+02
    -22.568  0.0000E+00  0.0000E+00  0.1200E+02  0.1200E+02
    -22.371  0.0000E+00  0.0000E+00  0.1200E+02  0.1200E+02
    -22.175  0.0000E+00  0.0000E+00  0.1200E+02  0.1200E+02
    -21.978  0.0000E+00  0.0000E+00  0.1200E+02  0.1200E+02
    -21.781  0.0000E+00  0.0000E+00  0.1200E+02  0.1200E+02
    -21.585  0.0000E+00  0.0000E+00  0.1200E+02  0.1200E+02
    -21.388  0.0000E+00  0.0000E+00  0.1200E+02  0.1200E+02
    -21.192  0.0000E+00  0.0000E+00  0.1200E+02  0.1200E+02
    -20.995  0.0000E+00  0.0000E+00  0.1200E+02  0.1200E+02
    -20.798  0.0000E+00  0.0000E+00  0.1200E+02  0.1200E+02
    -20.602  0.0000E+00  0.0000E+00  0.1200E+02  0.1200E+02
    -20.405  0.0000E+00  0.0000E+00  0.1200E+02  0.1200E+02
    -20.209  0.0000E+00  0.0000E+00  0.1200E+02  0.1200E+02
    -20.012  0.0000E+00  0.0000E+00  0.1200E+02  0.1200E+02
    -19.816  0.0000E+00  0.0000E+00  0.1200E+02  0.1200E+02
    -19.619  0.0000E+00  0.0000E+00  0.1200E+02  0.1200E+02
    -19.422  0.0000E+00  0.0000E+00  0.1200E+02  0.1200E+02
    -19.226  0.0000E+00  0.0000E+00  0.1200E+02  0.1200E+02
    -19.029  0.0000E+00  0.0000E+00  0.1200E+02  0.1200E+02
    -18.833  0.0000E+00  0.0000E+00  0.1200E+02  0.1200E+02
    -18.636  0.0000E+00  0.0000E+00  0.1200E+02  0.1200E+02
    -18.439  0.0000E+00  0.0000E+00  0.1200E+02  0.1200E+02
    -18.243  0.0000E+00  0.0000E+00  0.1200E+02  0.1200E+02
    -18.046  0.0000E+00  0.0000E+00  0.1200E+02  0.1200E+02
    -17.850  0.0000E+00  0.0000E+00  0.1200E+02  0.1200E+02
    -17.653  0.0000E+00  0.0000E+00  0.1200E+02  0.1200E+02
    -17.456  0.0000E+00  0.0000E+00  0.1200E+02  0.1200E+02
    -17.260  0.0000E+00  0.0000E+00  0.1200E+02  0.1200E+02
    -17.063  0.0000E+00  0.0000E+00  0.1200E+02  0.1200E+02
    -16.867  0.0000E+00  0.0000E+00  0.1200E+02  0.1200E+02
    -16.670  0.0000E+00  0.0000E+00  0.1200E+02  0.1200E+02
    -16.473  0.0000E+00  0.0000E+00  0.1200E+02  0.1200E+02
    -16.277  0.0000E+00  0.0000E+00  0.1200E+02  0.1200E+02
    -16.080  0.0000E+00  0.0000E+00  0.1200E+02  0.1200E+02
    -15.884  0.0000E+00  0.0000E+00  0.1200E+02  0.1200E+02
    -15.687  0.0000E+00  0.0000E+00  0.1200E+02  0.1200E+02
    -15.491  0.8312E-01  0.8313E-01  0.1202E+02  0.1202E+02
    -15.294  0.3506E+00  0.3506E+00  0.1214E+02  0.1214E+02
    -15.097  0.8048E+00  0.8048E+00  0.1243E+02  0.1243E+02
    -14.901  0.3053E+00  0.3053E+00  0.1274E+02  0.1274E+02
    -14.704  0.5091E+00  0.5091E+00  0.1303E+02  0.1303E+02
    -14.508  0.6736E+00  0.6736E+00  0.1330E+02  0.1330E+02
    -14.311  0.8461E+00  0.8461E+00  0.1368E+02  0.1368E+02
    -14.114  0.1735E+01  0.1735E+01  0.1441E+02  0.1441E+02
    -13.918  0.2302E+01  0.2302E+01  0.1522E+02  0.1522E+02
    -13.721  0.3999E+01  0.3999E+01  0.1654E+02  0.1654E+02
    -13.525  0.3010E+01  0.3010E+01  0.1953E+02  0.1953E+02
    -13.328  0.0000E+00  0.0000E+00  0.2000E+02  0.2000E+02
    -13.131  0.0000E+00  0.0000E+00  0.2000E+02  0.2000E+02
    -12.935  0.0000E+00  0.0000E+00  0.2000E+02  0.2000E+02
    -12.738  0.0000E+00  0.0000E+00  0.2000E+02  0.2000E+02
    -12.542  0.0000E+00  0.0000E+00  0.2000E+02  0.2000E+02
    -12.345  0.0000E+00  0.0000E+00  0.2000E+02  0.2000E+02
    -12.148  0.0000E+00  0.0000E+00  0.2000E+02  0.2000E+02
    -11.952  0.0000E+00  0.0000E+00  0.2000E+02  0.2000E+02
    -11.755  0.0000E+00  0.0000E+00  0.2000E+02  0.2000E+02
    -11.559  0.0000E+00  0.0000E+00  0.2000E+02  0.2000E+02
    -11.362  0.0000E+00  0.0000E+00  0.2000E+02  0.2000E+02
    -11.165  0.0000E+00  0.0000E+00  0.2000E+02  0.2000E+02
    -10.969  0.0000E+00  0.0000E+00  0.2000E+02  0.2000E+02
    -10.772  0.0000E+00  0.0000E+00  0.2000E+02  0.2000E+02
    -10.576  0.0000E+00  0.0000E+00  0.2000E+02  0.2000E+02
    -10.379  0.0000E+00  0.0000E+00  0.2000E+02  0.2000E+02
    -10.183  0.0000E+00  0.0000E+00  0.2000E+02  0.2000E+02
     -9.986  0.0000E+00  0.0000E+00  0.2000E+02  0.2000E+02
     -9.789  0.0000E+00  0.0000E+00  0.2000E+02  0.2000E+02
     -9.593  0.0000E+00  0.0000E+00  0.2000E+02  0.2000E+02
     -9.396  0.0000E+00  0.0000E+00  0.2000E+02  0.2000E+02
     -9.200  0.0000E+00  0.0000E+00  0.2000E+02  0.2000E+02
     -9.003  0.0000E+00  0.0000E+00  0.2000E+02  0.2000E+02
     -8.806  0.0000E+00  0.0000E+00  0.2000E+02  0.2000E+02
     -8.610  0.0000E+00  0.0000E+00  0.2000E+02  0.2000E+02
     -8.413  0.0000E+00  0.0000E+00  0.2000E+02  0.2000E+02
     -8.217  0.0000E+00  0.0000E+00  0.2000E+02  0.2000E+02
     -8.020  0.0000E+00  0.0000E+00  0.2000E+02  0.2000E+02
     -7.823  0.0000E+00  0.0000E+00  0.2000E+02  0.2000E+02
     -7.627  0.0000E+00  0.0000E+00  0.2000E+02  0.2000E+02
     -7.430  0.0000E+00  0.0000E+00  0.2000E+02  0.2000E+02
     -7.234  0.0000E+00  0.0000E+00  0.2000E+02  0.2000E+02
     -7.037  0.0000E+00  0.0000E+00  0.2000E+02  0.2000E+02
     -6.840  0.0000E+00  0.0000E+00  0.2000E+02  0.2000E+02
     -6.644  0.0000E+00  0.0000E+00  0.2000E+02  0.2000E+02
     -6.447  0.0000E+00  0.0000E+00  0.2000E+02  0.2000E+02
     -6.251  0.0000E+00  0.0000E+00  0.2000E+02  0.2000E+02
     -6.054  0.0000E+00  0.0000E+00  0.2000E+02  0.2000E+02
     -5.858  0.0000E+00  0.0000E+00  0.2000E+02  0.2000E+02
     -5.661  0.0000E+00  0.0000E+00  0.2000E+02  0.2000E+02
     -5.464  0.0000E+00  0.0000E+00  0.2000E+02  0.2000E+02
     -5.268  0.0000E+00  0.0000E+00  0.2000E+02  0.2000E+02
     -5.071  0.0000E+00  0.0000E+00  0.2000E+02  0.2000E+02
     -4.875  0.0000E+00  0.0000E+00  0.2000E+02  0.2000E+02
     -4.678  0.0000E+00  0.0000E+00  0.2000E+02  0.2000E+02
     -4.481  0.0000E+00  0.0000E+00  0.2000E+02  0.2000E+02
     -4.285  0.0000E+00  0.0000E+00  0.2000E+02  0.2000E+02
     -4.088  0.0000E+00  0.0000E+00  0.2000E+02  0.2000E+02
     -3.892  0.0000E+00  0.0000E+00  0.2000E+02  0.2000E+02
     -3.695  0.0000E+00  0.0000E+00  0.2000E+02  0.2000E+02
     -3.498  0.0000E+00  0.0000E+00  0.2000E+02  0.2000E+02
     -3.302  0.0000E+00  0.0000E+00  0.2000E+02  0.2000E+02
     -3.105  0.0000E+00  0.0000E+00  0.2000E+02  0.2000E+02
     -2.909  0.4329E-01  0.4332E-01  0.2001E+02  0.2001E+02
     -2.712  0.4569E+00  0.4570E+00  0.2016E+02  0.2016E+02
     -2.515  0.8279E+00  0.8280E+00  0.2044E+02  0.2044E+02
     -2.319  0.1780E+01  0.1780E+01  0.2105E+02  0.2105E+02
     -2.122  0.1709E+01  0.1709E+01  0.2178E+02  0.2178E+02
     -1.926  0.1732E+01  0.1732E+01  0.2292E+02  0.2292E+02
     -1.729  0.1994E+01  0.1994E+01  0.2403E+02  0.2403E+02
     -1.532  0.3504E+01  0.3504E+01  0.2557E+02  0.2557E+02
     -1.336  0.2570E+01  0.2571E+01  0.2710E+02  0.2710E+02
     -1.139  0.4654E+00  0.4655E+00  0.2801E+02  0.2801E+02
     -0.943  0.1286E+01  0.1286E+01  0.2852E+02  0.2852E+02
     -0.746  0.2210E+01  0.2210E+01  0.2953E+02  0.2953E+02
     -0.550  0.1681E+01  0.1681E+01  0.3021E+02  0.3021E+02
     -0.353  0.1784E+01  0.1784E+01  0.3102E+02  0.3102E+02
     -0.156  0.1302E+01  0.1302E+01  0.3186E+02  0.3186E+02
      0.040  0.9282E+00  0.9284E+00  0.3240E+02  0.3240E+02
      0.237  0.1391E+01  0.1391E+01  0.3311E+02  0.3311E+02
      0.433  0.2498E+01  0.2498E+01  0.3434E+02  0.3434E+02
      0.630  0.1423E+01  0.1423E+01  0.3535E+02  0.3535E+02
      0.827  0.2934E+01  0.2934E+01  0.3651E+02  0.3651E+02
      1.023  0.2680E+01  0.2680E+01  0.3769E+02  0.3769E+02
      1.220  0.1830E+01  0.1830E+01  0.3862E+02  0.3862E+02
      1.416  0.1408E+01  0.1408E+01  0.3934E+02  0.3934E+02
      1.613  0.1589E+01  0.1589E+01  0.4004E+02  0.4004E+02
      1.810  0.2299E+01  0.2299E+01  0.4103E+02  0.4103E+02
      2.006  0.1703E+01  0.1703E+01  0.4205E+02  0.4205E+02
      2.203  0.2654E+01  0.2655E+01  0.4304E+02  0.4304E+02
      2.399  0.1455E+01  0.1456E+01  0.4384E+02  0.4384E+02
      2.596  0.1950E+01  0.1951E+01  0.4458E+02  0.4458E+02
      2.793  0.3034E+01  0.2962E+01  0.4581E+02  0.4581E+02
      2.989  0.2090E+01  0.2091E+01  0.4665E+02  0.4665E+02
      3.186  0.2572E+01  0.2573E+01  0.4785E+02  0.4785E+02
      3.382  0.1888E+01  0.1888E+01  0.4860E+02  0.4860E+02
      3.579  0.1453E+01  0.1453E+01  0.4959E+02  0.4959E+02
      3.775  0.3638E+00  0.3638E+00  0.4993E+02  0.4993E+02
      3.972  0.3633E-01  0.3633E-01  0.5000E+02  0.5000E+02
      4.169  0.0000E+00  0.0000E+00  0.5000E+02  0.5000E+02
      4.365  0.0000E+00  0.0000E+00  0.5000E+02  0.5000E+02
      4.562  0.0000E+00  0.0000E+00  0.5000E+02  0.5000E+02
      4.758  0.1342E+00  0.1340E+00  0.5003E+02  0.5003E+02
      4.955  0.9006E+00  0.9006E+00  0.5038E+02  0.5038E+02
      5.152  0.1766E+01  0.1766E+01  0.5113E+02  0.5113E+02
      5.348  0.2286E+01  0.2286E+01  0.5237E+02  0.5237E+02
      5.545  0.3624E+01  0.3623E+01  0.5385E+02  0.5385E+02
      5.741  0.1229E+01  0.1229E+01  0.5457E+02  0.5457E+02
      5.938  0.2808E+01  0.2808E+01  0.5578E+02  0.5578E+02
      6.135  0.2678E+01  0.2678E+01  0.5713E+02  0.5713E+02
      6.331  0.3020E+01  0.3020E+01  0.5831E+02  0.5831E+02
      6.528  0.1066E+01  0.1066E+01  0.5930E+02  0.5930E+02
      6.724  0.3088E+00  0.3088E+00  0.5958E+02  0.5958E+02
      6.921  0.2051E-01  0.2053E-01  0.5973E+02  0.5973E+02
      7.118  0.4359E-01  0.4368E-01  0.5993E+02  0.5993E+02
      7.314  0.0000E+00  0.0000E+00  0.6000E+02  0.6000E+02
      7.511  0.0000E+00  0.0000E+00  0.6000E+02  0.6000E+02
      7.707  0.0000E+00  0.0000E+00  0.6000E+02  0.6000E+02
      7.904  0.0000E+00  0.0000E+00  0.6000E+02  0.6000E+02
      8.100  0.0000E+00  0.0000E+00  0.6000E+02  0.6000E+02
      8.297  0.0000E+00  0.0000E+00  0.6000E+02  0.6000E+02
      8.494  0.0000E+00  0.0000E+00  0.6000E+02  0.6000E+02
      8.690  0.0000E+00  0.0000E+00  0.6000E+02  0.6000E+02
      8.887  0.0000E+00  0.0000E+00  0.6000E+02  0.6000E+02
      9.083  0.0000E+00  0.0000E+00  0.6000E+02  0.6000E+02
      9.280  0.0000E+00  0.0000E+00  0.6000E+02  0.6000E+02
      9.477  0.0000E+00  0.0000E+00  0.6000E+02  0.6000E+02
      9.673  0.0000E+00  0.0000E+00  0.6000E+02  0.6000E+02
      9.870  0.0000E+00  0.0000E+00  0.6000E+02  0.6000E+02
