 vasp.5.4.4.18Apr17-6-g9f103f2a35 (build Nov 08 2022 17:27:33) complex          
  
 executed on             LinuxIFC date 2022.11.22  19:52:03
 running on   16 total cores
 distrk:  each k-point on   16 cores,    1 groups
 distr:  one band on NCORES_PER_BAND=   4 cores,    4 groups


--------------------------------------------------------------------------------------------------------


 INCAR:
 POTCAR:    PAW_PBE Mn_pv 02Aug2007               
 POTCAR:    PAW_PBE O 08Apr2002                   
 POTCAR:    PAW_PBE Mn_pv 02Aug2007               
   VRHFIN =Mn: 3p4s3d                                                           
   LEXCH  = PE                                                                  
   EATOM  =  2025.2664 eV,  148.8529 Ry                                         
                                                                                
   TITEL  = PAW_PBE Mn_pv 02Aug2007                                             
   LULTRA =        F    use ultrasoft PP ?                                      
   IUNSCR =        1    unscreen: 0-lin 1-nonlin 2-no                           
   RPACOR =    2.080    partial core radius                                     
   POMASS =   54.938; ZVAL   =   13.000    mass and valenz                      
   RCORE  =    2.300    outmost cutoff radius                                   
   RWIGS  =    2.500; RWIGS  =    1.323    wigner-seitz radius (au A)           
   ENMAX  =  269.864; ENMIN  =  202.398 eV                                      
   ICORE  =        3    local potential                                         
   LCOR   =        T    correct aug charges                                     
   LPAW   =        T    paw PP                                                  
   EAUG   =  569.085                                                            
   DEXC   =    0.000                                                            
   RMAX   =    2.343    core radius for proj-oper                               
   RAUG   =    1.300    factor for augmentation sphere                          
   RDEP   =    2.338    radius for radial grids                                 
   RDEPT  =    1.798    core radius for aug-charge                              
                                                                                
   Atomic configuration                                                         
    8 entries                                                                   
     n  l   j            E        occ.                                          
     1  0  0.50     -6424.8287   2.0000                                         
     2  0  0.50      -739.1154   2.0000                                         
     2  1  1.50      -625.3949   6.0000                                         
     3  0  0.50       -81.6100   2.0000                                         
     3  1  1.50       -50.4667   6.0000                                         
     3  2  2.50        -3.3745   6.0000                                         
     4  0  0.50        -4.1331   1.0000                                         
     4  3  2.50        -1.3606   0.0000                                         
   Description                                                                  
     l       E           TYP  RCUT    TYP  RCUT                                 
     1    -50.4666628     23  2.000                                             
     1     -1.3605826     23  2.000                                             
     2     -3.3744729     23  2.300                                             
     2     -4.7350555     23  2.300                                             
     0     -4.1331431     23  2.300                                             
     0      7.6656591     23  2.300                                             
     3      9.5240782     23  2.300                                             
  local pseudopotential read in
  partial core-charges read in
  partial kinetic energy density read in
  atomic valenz-charges read in
  non local Contribution for L=           1  read in
    real space projection operators read in
  non local Contribution for L=           1  read in
    real space projection operators read in
  non local Contribution for L=           2  read in
    real space projection operators read in
  non local Contribution for L=           2  read in
    real space projection operators read in
  non local Contribution for L=           0  read in
    real space projection operators read in
  non local Contribution for L=           0  read in
    real space projection operators read in
    PAW grid and wavefunctions read in
 
   number of l-projection  operators is LMAX  =           6
   number of lm-projection operators is LMMAX =          18
 
 POTCAR:    PAW_PBE O 08Apr2002                   
   VRHFIN =O: s2p4                                                              
   LEXCH  = PE                                                                  
   EATOM  =   432.3788 eV,   31.7789 Ry                                         
                                                                                
   TITEL  = PAW_PBE O 08Apr2002                                                 
   LULTRA =        F    use ultrasoft PP ?                                      
   IUNSCR =        1    unscreen: 0-lin 1-nonlin 2-no                           
   RPACOR =    1.200    partial core radius                                     
   POMASS =   16.000; ZVAL   =    6.000    mass and valenz                      
   RCORE  =    1.520    outmost cutoff radius                                   
   RWIGS  =    1.550; RWIGS  =    0.820    wigner-seitz radius (au A)           
   ENMAX  =  400.000; ENMIN  =  300.000 eV                                      
   ICORE  =        2    local potential                                         
   LCOR   =        T    correct aug charges                                     
   LPAW   =        T    paw PP                                                  
   EAUG   =  605.392                                                            
   DEXC   =    0.000                                                            
   RMAX   =    1.553    core radius for proj-oper                               
   RAUG   =    1.300    factor for augmentation sphere                          
   RDEP   =    1.550    radius for radial grids                                 
   RDEPT  =    1.329    core radius for aug-charge                              
                                                                                
   Atomic configuration                                                         
    4 entries                                                                   
     n  l   j            E        occ.                                          
     1  0  0.50      -514.6923   2.0000                                         
     2  0  0.50       -23.9615   2.0000                                         
     2  1  0.50        -9.0305   4.0000                                         
     3  2  1.50        -9.5241   0.0000                                         
   Description                                                                  
     l       E           TYP  RCUT    TYP  RCUT                                 
     0    -23.9615318     23  1.200                                             
     0     -9.5240782     23  1.200                                             
     1     -9.0304911     23  1.520                                             
     1      8.1634956     23  1.520                                             
     2     -9.5240782      7  1.500                                             
  local pseudopotential read in
  partial core-charges read in
  partial kinetic energy density read in
  kinetic energy density of atom read in
  atomic valenz-charges read in
  non local Contribution for L=           0  read in
    real space projection operators read in
  non local Contribution for L=           0  read in
    real space projection operators read in
  non local Contribution for L=           1  read in
    real space projection operators read in
  non local Contribution for L=           1  read in
    real space projection operators read in
    PAW grid and wavefunctions read in
 
   number of l-projection  operators is LMAX  =           4
   number of lm-projection operators is LMMAX =           8
 
  PAW_PBE Mn_pv 02Aug2007               :
 energy of atom  1       EATOM=-2025.2664
 kinetic energy error for atom=    0.0058 (will be added to EATOM!!)
  PAW_PBE O 08Apr2002                   :
 energy of atom  2       EATOM= -432.3788
 kinetic energy error for atom=    0.0208 (will be added to EATOM!!)
 
 
 POSCAR: Mn4 O8                                  
  positions in direct lattice
  velocities in cartesian coordinates
 exchange correlation table for  LEXCH =        8
   RHO(1)=    0.500       N(1)  =     2000
   RHO(2)=  100.500       N(2)  =     4000

 VTST: version 3.2, (02/03/18)

 CHAIN: initializing optimizer
 
 OPT: Using VASP Conjugate-Gradient optimizer
 CHAIN: Read ICHAIN            0
 
 POSCAR: Mn4 O8                                  
  positions in direct lattice
  velocities in cartesian coordinates
 


--------------------------------------------------------------------------------------------------------


 ion  position               nearest neighbor table
   1  0.250  0.032  0.864-  10 1.88  12 1.90  12 1.90   6 1.91   6 1.91   7 1.93   2 2.92   2 2.92

   2  0.750  0.968  0.136-  11 1.88   9 1.90   9 1.90   7 1.91   7 1.91   6 1.93   1 2.92   1 2.92

   3  0.750  0.532  0.636-  12 1.88  10 1.90  10 1.90   5 1.91   5 1.91   8 1.93   4 2.92   4 2.92

   4  0.250  0.468  0.364-   9 1.88  11 1.90  11 1.90   8 1.91   8 1.91   5 1.93   3 2.92   3 2.92

   5  0.250  0.710  0.534-   3 1.91   3 1.91   4 1.93
   6  0.750  0.210  0.966-   1 1.91   1 1.91   2 1.93
   7  0.250  0.790  0.034-   2 1.91   2 1.91   1 1.93
   8  0.750  0.290  0.466-   4 1.91   4 1.91   3 1.93
   9  0.250  0.176  0.222-   4 1.88   2 1.90   2 1.90
  10  0.250  0.324  0.722-   1 1.88   3 1.90   3 1.90
  11  0.750  0.676  0.278-   2 1.88   4 1.90   4 1.90
  12  0.750  0.824  0.778-   3 1.88   1 1.90   1 1.90
 

IMPORTANT INFORMATION: All symmetrisations will be switched off!
NOSYMM: (Re-)initialisation of all symmetry stuff for point group C_1.

 
 

Automatic generation of k-mesh.
 generate k-points for:   10    7    4
Space group operators:
 irot       det(A)        alpha          n_x          n_y          n_z        tau_x        tau_y        tau_z
    1     1.000000     0.000000     1.000000     0.000000     0.000000     0.000000     0.000000     0.000000
 
 Subroutine IBZKPT returns following result:
 ===========================================
 
 Found    142 irreducible k-points:
 
 Following reciprocal coordinates:
            Coordinates               Weight
  0.000000  0.000000  0.000000      1.000000
  0.100000 -0.000000  0.000000      2.000000
  0.200000  0.000000  0.000000      2.000000
  0.300000 -0.000000  0.000000      2.000000
  0.400000  0.000000  0.000000      2.000000
  0.500000 -0.000000 -0.000000      1.000000
  0.000000  0.142857  0.000000      2.000000
  0.100000  0.142857  0.000000      2.000000
  0.200000  0.142857  0.000000      2.000000
  0.300000  0.142857  0.000000      2.000000
  0.400000  0.142857 -0.000000      2.000000
  0.500000  0.142857  0.000000      2.000000
 -0.400000  0.142857  0.000000      2.000000
 -0.300000  0.142857  0.000000      2.000000
 -0.200000  0.142857 -0.000000      2.000000
 -0.100000  0.142857 -0.000000      2.000000
  0.000000  0.285714 -0.000000      2.000000
  0.100000  0.285714 -0.000000      2.000000
  0.200000  0.285714  0.000000      2.000000
  0.300000  0.285714 -0.000000      2.000000
  0.400000  0.285714  0.000000      2.000000
  0.500000  0.285714 -0.000000      2.000000
 -0.400000  0.285714 -0.000000      2.000000
 -0.300000  0.285714  0.000000      2.000000
 -0.200000  0.285714 -0.000000      2.000000
 -0.100000  0.285714  0.000000      2.000000
  0.000000  0.428571 -0.000000      2.000000
  0.100000  0.428571  0.000000      2.000000
  0.200000  0.428571  0.000000      2.000000
  0.300000  0.428571  0.000000      2.000000
  0.400000  0.428571  0.000000      2.000000
  0.500000  0.428571  0.000000      2.000000
 -0.400000  0.428571  0.000000      2.000000
 -0.300000  0.428571 -0.000000      2.000000
 -0.200000  0.428571  0.000000      2.000000
 -0.100000  0.428571  0.000000      2.000000
 -0.000000  0.000000  0.250000      2.000000
  0.100000 -0.000000  0.250000      2.000000
  0.200000  0.000000  0.250000      2.000000
  0.300000  0.000000  0.250000      2.000000
  0.400000  0.000000  0.250000      2.000000
  0.500000  0.000000  0.250000      2.000000
 -0.400000  0.000000  0.250000      2.000000
 -0.300000  0.000000  0.250000      2.000000
 -0.200000  0.000000  0.250000      2.000000
 -0.100000  0.000000  0.250000      2.000000
  0.000000  0.142857  0.250000      2.000000
  0.100000  0.142857  0.250000      2.000000
  0.200000  0.142857  0.250000      2.000000
  0.300000  0.142857  0.250000      2.000000
  0.400000  0.142857  0.250000      2.000000
  0.500000  0.142857  0.250000      2.000000
 -0.400000  0.142857  0.250000      2.000000
 -0.300000  0.142857  0.250000      2.000000
 -0.200000  0.142857  0.250000      2.000000
 -0.100000  0.142857  0.250000      2.000000
  0.000000  0.285714  0.250000      2.000000
  0.100000  0.285714  0.250000      2.000000
  0.200000  0.285714  0.250000      2.000000
  0.300000  0.285714  0.250000      2.000000
  0.400000  0.285714  0.250000      2.000000
  0.500000  0.285714  0.250000      2.000000
 -0.400000  0.285714  0.250000      2.000000
 -0.300000  0.285714  0.250000      2.000000
 -0.200000  0.285714  0.250000      2.000000
 -0.100000  0.285714  0.250000      2.000000
  0.000000  0.428571  0.250000      2.000000
  0.100000  0.428571  0.250000      2.000000
  0.200000  0.428571  0.250000      2.000000
  0.300000  0.428571  0.250000      2.000000
  0.400000  0.428571  0.250000      2.000000
  0.500000  0.428571  0.250000      2.000000
 -0.400000  0.428571  0.250000      2.000000
 -0.300000  0.428571  0.250000      2.000000
 -0.200000  0.428571  0.250000      2.000000
 -0.100000  0.428571  0.250000      2.000000
  0.000000 -0.428571  0.250000      2.000000
  0.100000 -0.428571  0.250000      2.000000
  0.200000 -0.428571  0.250000      2.000000
  0.300000 -0.428571  0.250000      2.000000
  0.400000 -0.428571  0.250000      2.000000
  0.500000 -0.428571  0.250000      2.000000
 -0.400000 -0.428571  0.250000      2.000000
 -0.300000 -0.428571  0.250000      2.000000
 -0.200000 -0.428571  0.250000      2.000000
 -0.100000 -0.428571  0.250000      2.000000
 -0.000000 -0.285714  0.250000      2.000000
  0.100000 -0.285714  0.250000      2.000000
  0.200000 -0.285714  0.250000      2.000000
  0.300000 -0.285714  0.250000      2.000000
  0.400000 -0.285714  0.250000      2.000000
  0.500000 -0.285714  0.250000      2.000000
 -0.400000 -0.285714  0.250000      2.000000
 -0.300000 -0.285714  0.250000      2.000000
 -0.200000 -0.285714  0.250000      2.000000
 -0.100000 -0.285714  0.250000      2.000000
 -0.000000 -0.142857  0.250000      2.000000
  0.100000 -0.142857  0.250000      2.000000
  0.200000 -0.142857  0.250000      2.000000
  0.300000 -0.142857  0.250000      2.000000
  0.400000 -0.142857  0.250000      2.000000
  0.500000 -0.142857  0.250000      2.000000
 -0.400000 -0.142857  0.250000      2.000000
 -0.300000 -0.142857  0.250000      2.000000
 -0.200000 -0.142857  0.250000      2.000000
 -0.100000 -0.142857  0.250000      2.000000
 -0.000000  0.000000  0.500000      1.000000
  0.100000  0.000000  0.500000      2.000000
  0.200000 -0.000000  0.500000      2.000000
  0.300000  0.000000  0.500000      2.000000
  0.400000  0.000000  0.500000      2.000000
  0.500000  0.000000  0.500000      1.000000
 -0.000000  0.142857  0.500000      2.000000
  0.100000  0.142857  0.500000      2.000000
  0.200000  0.142857  0.500000      2.000000
  0.300000  0.142857  0.500000      2.000000
  0.400000  0.142857  0.500000      2.000000
  0.500000  0.142857  0.500000      2.000000
 -0.400000  0.142857  0.500000      2.000000
 -0.300000  0.142857  0.500000      2.000000
 -0.200000  0.142857  0.500000      2.000000
 -0.100000  0.142857  0.500000      2.000000
  0.000000  0.285714  0.500000      2.000000
  0.100000  0.285714  0.500000      2.000000
  0.200000  0.285714  0.500000      2.000000
  0.300000  0.285714  0.500000      2.000000
  0.400000  0.285714  0.500000      2.000000
  0.500000  0.285714  0.500000      2.000000
 -0.400000  0.285714  0.500000      2.000000
 -0.300000  0.285714  0.500000      2.000000
 -0.200000  0.285714  0.500000      2.000000
 -0.100000  0.285714  0.500000      2.000000
  0.000000  0.428571  0.500000      2.000000
  0.100000  0.428571  0.500000      2.000000
  0.200000  0.428571  0.500000      2.000000
  0.300000  0.428571  0.500000      2.000000
  0.400000  0.428571  0.500000      2.000000
  0.500000  0.428571  0.500000      2.000000
 -0.400000  0.428571  0.500000      2.000000
 -0.300000  0.428571  0.500000      2.000000
 -0.200000  0.428571  0.500000      2.000000
 -0.100000  0.428571  0.500000      2.000000
 
 Following cartesian coordinates:
            Coordinates               Weight
  0.000000  0.000000  0.000000      1.000000
  0.034854  0.000000 -0.000000      2.000000
  0.069708  0.000001 -0.000000      2.000000
  0.104562  0.000001 -0.000000      2.000000
  0.139417  0.000001 -0.000000      2.000000
  0.174271  0.000001 -0.000000      1.000000
  0.000000  0.031023  0.000001      2.000000
  0.034854  0.031024  0.000001      2.000000
  0.069709  0.031024  0.000001      2.000000
  0.104563  0.031024  0.000001      2.000000
  0.139417  0.031024  0.000001      2.000000
  0.174271  0.031025  0.000001      2.000000
 -0.139416  0.031022  0.000002      2.000000
 -0.104562  0.031023  0.000002      2.000000
 -0.069708  0.031023  0.000002      2.000000
 -0.034854  0.031023  0.000001      2.000000
  0.000000  0.062047  0.000003      2.000000
  0.034855  0.062047  0.000003      2.000000
  0.069709  0.062047  0.000003      2.000000
  0.104563  0.062047  0.000003      2.000000
  0.139417  0.062048  0.000003      2.000000
  0.174271  0.062048  0.000003      2.000000
 -0.139416  0.062046  0.000003      2.000000
 -0.104562  0.062046  0.000003      2.000000
 -0.069708  0.062046  0.000003      2.000000
 -0.034854  0.062046  0.000003      2.000000
  0.000001  0.093070  0.000004      2.000000
  0.034855  0.093070  0.000004      2.000000
  0.069709  0.093071  0.000004      2.000000
  0.104563  0.093071  0.000004      2.000000
  0.139417  0.093071  0.000004      2.000000
  0.174271  0.093071  0.000004      2.000000
 -0.139416  0.093069  0.000004      2.000000
 -0.104562  0.093069  0.000004      2.000000
 -0.069708  0.093069  0.000004      2.000000
 -0.034854  0.093070  0.000004      2.000000
 -0.000000  0.000001  0.026945      2.000000
  0.034854  0.000001  0.026945      2.000000
  0.069708  0.000002  0.026945      2.000000
  0.104562  0.000002  0.026945      2.000000
  0.139417  0.000002  0.026945      2.000000
  0.174271  0.000002  0.026945      2.000000
 -0.139417  0.000000  0.026945      2.000000
 -0.104563  0.000000  0.026945      2.000000
 -0.069708  0.000001  0.026945      2.000000
 -0.034854  0.000001  0.026945      2.000000
  0.000000  0.031025  0.026947      2.000000
  0.034854  0.031025  0.026947      2.000000
  0.069709  0.031025  0.026946      2.000000
  0.104563  0.031025  0.026946      2.000000
  0.139417  0.031026  0.026946      2.000000
  0.174271  0.031026  0.026946      2.000000
 -0.139416  0.031023  0.026947      2.000000
 -0.104562  0.031024  0.026947      2.000000
 -0.069708  0.031024  0.026947      2.000000
 -0.034854  0.031024  0.026947      2.000000
  0.000000  0.062048  0.026948      2.000000
  0.034855  0.062048  0.026948      2.000000
  0.069709  0.062048  0.026948      2.000000
  0.104563  0.062049  0.026948      2.000000
  0.139417  0.062049  0.026948      2.000000
  0.174271  0.062049  0.026948      2.000000
 -0.139416  0.062047  0.026948      2.000000
 -0.104562  0.062047  0.026948      2.000000
 -0.069708  0.062047  0.026948      2.000000
 -0.034854  0.062048  0.026948      2.000000
  0.000001  0.093071  0.026949      2.000000
  0.034855  0.093071  0.026949      2.000000
  0.069709  0.093072  0.026949      2.000000
  0.104563  0.093072  0.026949      2.000000
  0.139417  0.093072  0.026949      2.000000
  0.174271  0.093073  0.026949      2.000000
 -0.139416  0.093070  0.026950      2.000000
 -0.104562  0.093070  0.026950      2.000000
 -0.069708  0.093071  0.026950      2.000000
 -0.034854  0.093071  0.026949      2.000000
 -0.000001 -0.093069  0.026941      2.000000
  0.034854 -0.093069  0.026941      2.000000
  0.069708 -0.093068  0.026941      2.000000
  0.104562 -0.093068  0.026941      2.000000
  0.139416 -0.093068  0.026941      2.000000
  0.174270 -0.093068  0.026941      2.000000
 -0.139417 -0.093070  0.026941      2.000000
 -0.104563 -0.093070  0.026941      2.000000
 -0.069709 -0.093069  0.026941      2.000000
 -0.034855 -0.093069  0.026941      2.000000
 -0.000000 -0.062046  0.026942      2.000000
  0.034854 -0.062045  0.026942      2.000000
  0.069708 -0.062045  0.026942      2.000000
  0.104562 -0.062045  0.026942      2.000000
  0.139416 -0.062044  0.026942      2.000000
  0.174270 -0.062044  0.026942      2.000000
 -0.139417 -0.062047  0.026943      2.000000
 -0.104563 -0.062046  0.026942      2.000000
 -0.069709 -0.062046  0.026942      2.000000
 -0.034855 -0.062046  0.026942      2.000000
 -0.000000 -0.031022  0.026944      2.000000
  0.034854 -0.031022  0.026944      2.000000
  0.069708 -0.031022  0.026944      2.000000
  0.104562 -0.031021  0.026944      2.000000
  0.139416 -0.031021  0.026944      2.000000
  0.174271 -0.031021  0.026944      2.000000
 -0.139417 -0.031023  0.026944      2.000000
 -0.104563 -0.031023  0.026944      2.000000
 -0.069709 -0.031023  0.026944      2.000000
 -0.034854 -0.031022  0.026944      2.000000
 -0.000000  0.000002  0.053890      1.000000
  0.034854  0.000003  0.053890      2.000000
  0.069708  0.000003  0.053890      2.000000
  0.104562  0.000003  0.053890      2.000000
  0.139417  0.000003  0.053890      2.000000
  0.174271  0.000004  0.053890      1.000000
  0.000000  0.031026  0.053892      2.000000
  0.034854  0.031026  0.053892      2.000000
  0.069709  0.031026  0.053892      2.000000
  0.104563  0.031026  0.053892      2.000000
  0.139417  0.031027  0.053892      2.000000
  0.174271  0.031027  0.053892      2.000000
 -0.139416  0.031025  0.053892      2.000000
 -0.104562  0.031025  0.053892      2.000000
 -0.069708  0.031025  0.053892      2.000000
 -0.034854  0.031025  0.053892      2.000000
  0.000000  0.062049  0.053893      2.000000
  0.034855  0.062049  0.053893      2.000000
  0.069709  0.062050  0.053893      2.000000
  0.104563  0.062050  0.053893      2.000000
  0.139417  0.062050  0.053893      2.000000
  0.174271  0.062050  0.053893      2.000000
 -0.139416  0.062048  0.053893      2.000000
 -0.104562  0.062048  0.053893      2.000000
 -0.069708  0.062048  0.053893      2.000000
 -0.034854  0.062049  0.053893      2.000000
  0.000001  0.093072  0.053895      2.000000
  0.034855  0.093073  0.053895      2.000000
  0.069709  0.093073  0.053895      2.000000
  0.104563  0.093073  0.053894      2.000000
  0.139417  0.093073  0.053894      2.000000
  0.174271  0.093074  0.053894      2.000000
 -0.139416  0.093071  0.053895      2.000000
 -0.104562  0.093072  0.053895      2.000000
 -0.069708  0.093072  0.053895      2.000000
 -0.034854  0.093072  0.053895      2.000000
 


--------------------------------------------------------------------------------------------------------




 Dimension of arrays:
   k-points           NKPTS =    142   k-points in BZ     NKDIM =    142   number of bands    NBANDS=     60
   number of dos      NEDOS =    301   number of ions     NIONS =     12
   non local maximal  LDIM  =      6   non local SUM 2l+1 LMDIM =     18
   total plane-waves  NPLWV =  60480
   max r-space proj   IRMAX =      1   max aug-charges    IRDMAX=  15169
   dimension x,y,z NGX =    24 NGY =   36 NGZ =   70
   dimension x,y,z NGXF=    48 NGYF=   72 NGZF=  140
   support grid    NGXF=    48 NGYF=   72 NGZF=  140
   ions per type =               4   8
   NGX,Y,Z   is equivalent  to a cutoff of  13.91, 13.00, 12.54 a.u.
   NGXF,Y,Z  is equivalent  to a cutoff of  27.81, 25.99, 25.09 a.u.

 SYSTEM =  unknown system                          
 POSCAR =  Mn4 O8                                  

 Startparameter for this run:
   NWRITE =      2    write-flag & timer
   PREC   = accura    normal or accurate (medium, high low for compatibility)
   ISTART =      1    job   : 0-new  1-cont  2-samecut
   ICHARG =      0    charge: 1-file 2-atom 10-const
   ISPIN  =      2    spin polarized calculation?
   LNONCOLLINEAR =      F non collinear calculations
   LSORBIT =      F    spin-orbit coupling
   INIWAV =      1    electr: 0-lowe 1-rand  2-diag
   LASPH  =      T    aspherical Exc in radial PAW
   METAGGA=      F    non-selfconsistent MetaGGA calc.

 Electronic Relaxation 1
   ENCUT  =  520.0 eV  38.22 Ry    6.18 a.u.   5.33  8.56 17.25*2*pi/ulx,y,z
   ENINI  =  520.0     initial cutoff
   ENAUG  = 1040.0 eV  augmentation charge cutoff
   NELM   =    100;   NELMIN=  2; NELMDL=  0     # of ELM steps 
   EDIFF  = 0.1E-05   stopping-criterion for ELM
   LREAL  =      F    real-space projection
   NLSPLINE    = F    spline interpolate recip. space projectors
   LCOMPAT=      F    compatible to vasp.4.4
   GGA_COMPAT  = T    GGA compatible to vasp.4.4-vasp.4.6
   LMAXPAW     = -100 max onsite density
   LMAXMIX     =    4 max onsite mixed and CHGCAR
   VOSKOWN=      0    Vosko Wilk Nusair interpolation
   ROPT   =    0.00000   0.00000
 Ionic relaxation
   EDIFFG = -.3E-01   stopping-criterion for IOM
   NSW    =      0    number of steps for IOM
   NBLOCK =      1;   KBLOCK =      1    inner block; outer block 
   IBRION =     -1    ionic relax: 0-MD 1-quasi-New 2-CG
   NFREE  =      1    steps in history (QN), initial steepest desc. (CG)
   ISIF   =      3    stress and relaxation
   IWAVPR =     10    prediction:  0-non 1-charg 2-wave 3-comb
   ISYM   =      0    0-nonsym 1-usesym 2-fastsym
   LCORR  =      T    Harris-Foulkes like correction to forces

   POTIM  = 0.5000    time-step for ionic-motion
   TEIN   =    0.0    initial temperature
   TEBEG  =    0.0;   TEEND  =   0.0 temperature during run
   SMASS  =  -3.00    Nose mass-parameter (am)
   estimated Nose-frequenzy (Omega)   =  0.10E-29 period in steps =****** mass=  -0.188E-27a.u.
   SCALEE = 1.0000    scale energy and forces
   NPACO  =    256;   APACO  = 16.0  distance and # of slots for P.C.
   PSTRESS=    0.0 pullay stress

  Mass of Ions in am
   POMASS =  54.94 16.00
  Ionic Valenz
   ZVAL   =  13.00  6.00
  Atomic Wigner-Seitz radii
   RWIGS  =  -1.00 -1.00
  virtual crystal weights 
   VCA    =   1.00  1.00
   NELECT =     100.0000    total number of electrons
   NUPDOWN=      -1.0000    fix difference up-down

 DOS related values:
   EMIN   =  10.00;   EMAX   =-10.00  energy-range for DOS
   EFERMI =   0.00
   ISMEAR =     0;   SIGMA  =   0.01  broadening in eV -4-tet -1-fermi 0-gaus

 Electronic relaxation 2 (details)
   IALGO  =     68    algorithm
   LDIAG  =      T    sub-space diagonalisation (order eigenvalues)
   LSUBROT=      F    optimize rotation matrix (better conditioning)
   TURBO    =      0    0=normal 1=particle mesh
   IRESTART =      0    0=no restart 2=restart with 2 vectors
   NREBOOT  =      0    no. of reboots
   NMIN     =      0    reboot dimension
   EREF     =   0.00    reference energy to select bands
   IMIX   =      4    mixing-type and parameters
     AMIX     =   0.40;   BMIX     =  1.00
     AMIX_MAG =   1.60;   BMIX_MAG =  1.00
     AMIN     =   0.10
     WC   =   100.;   INIMIX=   1;  MIXPRE=   1;  MAXMIX= -45

 Intra band minimization:
   WEIMIN = 0.0000     energy-eigenvalue tresh-hold
   EBREAK =  0.42E-08  absolut break condition
   DEPER  =   0.30     relativ break condition  

   TIME   =   0.40     timestep for ELM

  volume/ion in A,a.u.               =      10.21        68.93
  Fermi-wavevector in a.u.,A,eV,Ry     =   1.529686  2.890687 31.836805  2.339939
  Thomas-Fermi vector in A             =   2.637273
 
 Write flags
   LWAVE        =      T    write WAVECAR
   LDOWNSAMPLE  =      F    k-point downsampling of WAVECAR
   LCHARG       =      T    write CHGCAR
   LVTOT        =      F    write LOCPOT, total local potential
   LVHAR        =      T    write LOCPOT, Hartree potential only
   LELF         =      F    write electronic localiz. function (ELF)
   LORBIT       =      0    0 simple, 1 ext, 2 COOP (PROOUT), +10 PAW based schemes


 Dipole corrections
   LMONO  =      F    monopole corrections only (constant potential shift)
   LDIPOL =      F    correct potential (dipole corrections)
   IDIPOL =      0    1-x, 2-y, 3-z, 4-all directions 
   EPSILON=  1.0000000 bulk dielectric constant

 Exchange correlation treatment:
   GGA     =    PE    GGA type
   LEXCH   =     8    internal setting for exchange type
   VOSKOWN=      0    Vosko Wilk Nusair interpolation
   LHFCALC =     F    Hartree Fock is set to
   LHFONE  =     F    Hartree Fock one center treatment
   AEXX    =    0.0000 exact exchange contribution

 Linear response parameters
   LEPSILON=     F    determine dielectric tensor
   LRPA    =     F    only Hartree local field effects (RPA)
   LNABLA  =     F    use nabla operator in PAW spheres
   LVEL    =     F    velocity operator in full k-point grid
   LINTERFAST=   F  fast interpolation
   KINTER  =     0    interpolate to denser k-point grid
   CSHIFT  =0.1000    complex shift for real part using Kramers Kronig
   OMEGAMAX=  -1.0    maximum frequency
   DEG_THRESHOLD= 0.2000000E-02 threshold for treating states as degnerate
   RTIME   =   -0.100 relaxation time in fs
  (WPLASMAI=    0.000 imaginary part of plasma frequency in eV, 0.658/RTIME)
   DFIELD  = 0.0000000 0.0000000 0.0000000 field for delta impulse in time
 
 Orbital magnetization related:
   ORBITALMAG=     F  switch on orbital magnetization
   LCHIMAG   =     F  perturbation theory with respect to B field
   DQ        =  0.001000  dq finite difference perturbation B field
   LLRAUG    =     F  two centre corrections for induced B field



--------------------------------------------------------------------------------------------------------


 Static calculation
 charge density and potential will be updated during run
 spin polarized calculation
 RMM-DIIS sequential band-by-band and
  variant of blocked Davidson during initial phase
 perform sub-space diagonalisation
    before iterative eigenvector-optimisation
 modified Broyden-mixing scheme, WC =      100.0
 initial mixing is a Kerker type mixing with AMIX =  0.4000 and BMIX =      1.0000
 Hartree-type preconditioning will be used
 using additional bands           10
 reciprocal scheme for non local part
 use partial core corrections
 calculate Harris-corrections to forces 
   (improved forces if not selfconsistent)
 use gradient corrections 
 use of overlap-Matrix (Vanderbilt PP)
 Gauss-broadening in eV      SIGMA  =   0.01


--------------------------------------------------------------------------------------------------------


  energy-cutoff  :      520.00
  volume of cell :      122.58
      direct lattice vectors                 reciprocal lattice vectors
     2.869097446 -0.000019175  0.000000990     0.348541665  0.000002664 -0.000000514
    -0.000035203  4.604828031 -0.000199220     0.000001451  0.217163376  0.000009959
     0.000013683 -0.000425507  9.278097277    -0.000000037  0.000004663  0.107780720

  length of vectors
     2.869097446  4.604828036  9.278097287     0.348541665  0.217163376  0.107780720


 
 old parameters found on file WAVECAR:
  energy-cutoff  :      520.00
  volume of cell :      126.04
      direct lattice vectors                 reciprocal lattice vectors
     2.916331000  0.000000000  0.000000000     0.342896605  0.000000075 -0.000000073
    -0.000001000  4.580966000  0.000145000     0.000000000  0.218294570 -0.000006941
     0.000002000  0.000300000  9.434393000     0.000000000 -0.000003355  0.105995161

  length of vectors

 
 k-points in units of 2pi/SCALE and weight: read from INCAR                         
   0.00000000  0.00000000  0.00000000       0.004
   0.03485417  0.00000027 -0.00000005       0.007
   0.06970833  0.00000053 -0.00000010       0.007
   0.10456250  0.00000080 -0.00000015       0.007
   0.13941667  0.00000107 -0.00000021       0.007
   0.17427083  0.00000133 -0.00000026       0.004
   0.00000021  0.03102334  0.00000142       0.007
   0.03485437  0.03102361  0.00000137       0.007
   0.06970854  0.03102387  0.00000132       0.007
   0.10456271  0.03102414  0.00000127       0.007
   0.13941687  0.03102441  0.00000122       0.007
   0.17427104  0.03102467  0.00000117       0.007
  -0.13941646  0.03102227  0.00000163       0.007
  -0.10456229  0.03102254  0.00000158       0.007
  -0.06970813  0.03102281  0.00000153       0.007
  -0.03485396  0.03102307  0.00000147       0.007
   0.00000041  0.06204668  0.00000285       0.007
   0.03485458  0.06204695  0.00000279       0.007
   0.06970875  0.06204721  0.00000274       0.007
   0.10456291  0.06204748  0.00000269       0.007
   0.13941708  0.06204774  0.00000264       0.007
   0.17427125  0.06204801  0.00000259       0.007
  -0.13941625  0.06204561  0.00000305       0.007
  -0.10456208  0.06204588  0.00000300       0.007
  -0.06970792  0.06204615  0.00000295       0.007
  -0.03485375  0.06204641  0.00000290       0.007
   0.00000062  0.09307002  0.00000427       0.007
   0.03485479  0.09307028  0.00000422       0.007
   0.06970895  0.09307055  0.00000417       0.007
   0.10456312  0.09307082  0.00000411       0.007
   0.13941729  0.09307108  0.00000406       0.007
   0.17427145  0.09307135  0.00000401       0.007
  -0.13941604  0.09306895  0.00000447       0.007
  -0.10456188  0.09306922  0.00000442       0.007
  -0.06970771  0.09306949  0.00000437       0.007
  -0.03485354  0.09306975  0.00000432       0.007
  -0.00000001  0.00000117  0.02694518       0.007
   0.03485416  0.00000143  0.02694513       0.007
   0.06970832  0.00000170  0.02694508       0.007
   0.10456249  0.00000197  0.02694503       0.007
   0.13941666  0.00000223  0.02694497       0.007
   0.17427082  0.00000250  0.02694492       0.007
  -0.13941668  0.00000010  0.02694539       0.007
  -0.10456251  0.00000037  0.02694533       0.007
  -0.06970834  0.00000063  0.02694528       0.007
  -0.03485418  0.00000090  0.02694523       0.007
   0.00000020  0.03102451  0.02694660       0.007
   0.03485436  0.03102477  0.02694655       0.007
   0.06970853  0.03102504  0.02694650       0.007
   0.10456270  0.03102530  0.02694645       0.007
   0.13941686  0.03102557  0.02694640       0.007
   0.17427103  0.03102584  0.02694635       0.007
  -0.13941647  0.03102344  0.02694681       0.007
  -0.10456230  0.03102371  0.02694676       0.007
  -0.06970813  0.03102397  0.02694671       0.007
  -0.03485397  0.03102424  0.02694665       0.007
   0.00000041  0.06204784  0.02694803       0.007
   0.03485457  0.06204811  0.02694797       0.007
   0.06970874  0.06204838  0.02694792       0.007
   0.10456290  0.06204864  0.02694787       0.007
   0.13941707  0.06204891  0.02694782       0.007
   0.17427124  0.06204918  0.02694777       0.007
  -0.13941626  0.06204678  0.02694823       0.007
  -0.10456209  0.06204705  0.02694818       0.007
  -0.06970793  0.06204731  0.02694813       0.007
  -0.03485376  0.06204758  0.02694808       0.007
   0.00000061  0.09307118  0.02694945       0.007
   0.03485478  0.09307145  0.02694940       0.007
   0.06970895  0.09307172  0.02694935       0.007
   0.10456311  0.09307198  0.02694929       0.007
   0.13941728  0.09307225  0.02694924       0.007
   0.17427145  0.09307252  0.02694919       0.007
  -0.13941605  0.09307012  0.02694965       0.007
  -0.10456189  0.09307038  0.02694960       0.007
  -0.06970772  0.09307065  0.02694955       0.007
  -0.03485355  0.09307092  0.02694950       0.007
  -0.00000063 -0.09306885  0.02694091       0.007
   0.03485354 -0.09306859  0.02694086       0.007
   0.06970770 -0.09306832  0.02694081       0.007
   0.10456187 -0.09306805  0.02694076       0.007
   0.13941603 -0.09306779  0.02694071       0.007
   0.17427020 -0.09306752  0.02694065       0.007
  -0.13941730 -0.09306992  0.02694112       0.007
  -0.10456313 -0.09306965  0.02694107       0.007
  -0.06970896 -0.09306939  0.02694101       0.007
  -0.03485480 -0.09306912  0.02694096       0.007
  -0.00000042 -0.06204551  0.02694233       0.007
   0.03485374 -0.06204525  0.02694228       0.007
   0.06970791 -0.06204498  0.02694223       0.007
   0.10456208 -0.06204471  0.02694218       0.007
   0.13941624 -0.06204445  0.02694213       0.007
   0.17427041 -0.06204418  0.02694208       0.007
  -0.13941709 -0.06204658  0.02694254       0.007
  -0.10456292 -0.06204631  0.02694249       0.007
  -0.06970876 -0.06204605  0.02694244       0.007
  -0.03485459 -0.06204578  0.02694239       0.007
  -0.00000022 -0.03102217  0.02694376       0.007
   0.03485395 -0.03102191  0.02694371       0.007
   0.06970812 -0.03102164  0.02694365       0.007
   0.10456228 -0.03102137  0.02694360       0.007
   0.13941645 -0.03102111  0.02694355       0.007
   0.17427062 -0.03102084  0.02694350       0.007
  -0.13941688 -0.03102324  0.02694396       0.007
  -0.10456272 -0.03102297  0.02694391       0.007
  -0.06970855 -0.03102271  0.02694386       0.007
  -0.03485438 -0.03102244  0.02694381       0.007
  -0.00000002  0.00000233  0.05389036       0.004
   0.03485415  0.00000260  0.05389031       0.007
   0.06970831  0.00000286  0.05389026       0.007
   0.10456248  0.00000313  0.05389021       0.007
   0.13941665  0.00000340  0.05389015       0.007
   0.17427081  0.00000366  0.05389010       0.004
   0.00000019  0.03102567  0.05389178       0.007
   0.03485436  0.03102594  0.05389173       0.007
   0.06970852  0.03102620  0.05389168       0.007
   0.10456269  0.03102647  0.05389163       0.007
   0.13941685  0.03102674  0.05389158       0.007
   0.17427102  0.03102700  0.05389153       0.007
  -0.13941648  0.03102461  0.05389199       0.007
  -0.10456231  0.03102487  0.05389194       0.007
  -0.06970814  0.03102514  0.05389189       0.007
  -0.03485398  0.03102540  0.05389183       0.007
   0.00000040  0.06204901  0.05389321       0.007
   0.03485456  0.06204928  0.05389315       0.007
   0.06970873  0.06204954  0.05389310       0.007
   0.10456290  0.06204981  0.05389305       0.007
   0.13941706  0.06205008  0.05389300       0.007
   0.17427123  0.06205034  0.05389295       0.007
  -0.13941627  0.06204794  0.05389341       0.007
  -0.10456210  0.06204821  0.05389336       0.007
  -0.06970794  0.06204848  0.05389331       0.007
  -0.03485377  0.06204874  0.05389326       0.007
   0.00000060  0.09307235  0.05389463       0.007
   0.03485477  0.09307262  0.05389458       0.007
   0.06970894  0.09307288  0.05389453       0.007
   0.10456310  0.09307315  0.05389447       0.007
   0.13941727  0.09307342  0.05389442       0.007
   0.17427144  0.09307368  0.05389437       0.007
  -0.13941606  0.09307128  0.05389483       0.007
  -0.10456190  0.09307155  0.05389478       0.007
  -0.06970773  0.09307182  0.05389473       0.007
  -0.03485356  0.09307208  0.05389468       0.007
 
 k-points in reciprocal lattice and weights: read from INCAR                         
   0.00000000  0.00000000  0.00000000       0.004
   0.10000000 -0.00000000  0.00000000       0.007
   0.20000000  0.00000000  0.00000000       0.007
   0.30000000 -0.00000000  0.00000000       0.007
   0.40000000  0.00000000  0.00000000       0.007
   0.50000000 -0.00000000 -0.00000000       0.004
   0.00000000  0.14285714  0.00000000       0.007
   0.10000000  0.14285714  0.00000000       0.007
   0.20000000  0.14285714  0.00000000       0.007
   0.30000000  0.14285714  0.00000000       0.007
   0.40000000  0.14285714 -0.00000000       0.007
   0.50000000  0.14285714  0.00000000       0.007
  -0.40000000  0.14285714  0.00000000       0.007
  -0.30000000  0.14285714  0.00000000       0.007
  -0.20000000  0.14285714 -0.00000000       0.007
  -0.10000000  0.14285714 -0.00000000       0.007
   0.00000000  0.28571429 -0.00000000       0.007
   0.10000000  0.28571429 -0.00000000       0.007
   0.20000000  0.28571429  0.00000000       0.007
   0.30000000  0.28571429 -0.00000000       0.007
   0.40000000  0.28571429  0.00000000       0.007
   0.50000000  0.28571429 -0.00000000       0.007
  -0.40000000  0.28571429 -0.00000000       0.007
  -0.30000000  0.28571429  0.00000000       0.007
  -0.20000000  0.28571429 -0.00000000       0.007
  -0.10000000  0.28571429  0.00000000       0.007
   0.00000000  0.42857143 -0.00000000       0.007
   0.10000000  0.42857143  0.00000000       0.007
   0.20000000  0.42857143  0.00000000       0.007
   0.30000000  0.42857143  0.00000000       0.007
   0.40000000  0.42857143  0.00000000       0.007
   0.50000000  0.42857143  0.00000000       0.007
  -0.40000000  0.42857143  0.00000000       0.007
  -0.30000000  0.42857143 -0.00000000       0.007
  -0.20000000  0.42857143  0.00000000       0.007
  -0.10000000  0.42857143  0.00000000       0.007
  -0.00000000  0.00000000  0.25000000       0.007
   0.10000000 -0.00000000  0.25000000       0.007
   0.20000000  0.00000000  0.25000000       0.007
   0.30000000  0.00000000  0.25000000       0.007
   0.40000000  0.00000000  0.25000000       0.007
   0.50000000  0.00000000  0.25000000       0.007
  -0.40000000  0.00000000  0.25000000       0.007
  -0.30000000  0.00000000  0.25000000       0.007
  -0.20000000  0.00000000  0.25000000       0.007
  -0.10000000  0.00000000  0.25000000       0.007
   0.00000000  0.14285714  0.25000000       0.007
   0.10000000  0.14285714  0.25000000       0.007
   0.20000000  0.14285714  0.25000000       0.007
   0.30000000  0.14285714  0.25000000       0.007
   0.40000000  0.14285714  0.25000000       0.007
   0.50000000  0.14285714  0.25000000       0.007
  -0.40000000  0.14285714  0.25000000       0.007
  -0.30000000  0.14285714  0.25000000       0.007
  -0.20000000  0.14285714  0.25000000       0.007
  -0.10000000  0.14285714  0.25000000       0.007
   0.00000000  0.28571429  0.25000000       0.007
   0.10000000  0.28571429  0.25000000       0.007
   0.20000000  0.28571429  0.25000000       0.007
   0.30000000  0.28571429  0.25000000       0.007
   0.40000000  0.28571429  0.25000000       0.007
   0.50000000  0.28571429  0.25000000       0.007
  -0.40000000  0.28571429  0.25000000       0.007
  -0.30000000  0.28571429  0.25000000       0.007
  -0.20000000  0.28571429  0.25000000       0.007
  -0.10000000  0.28571429  0.25000000       0.007
   0.00000000  0.42857143  0.25000000       0.007
   0.10000000  0.42857143  0.25000000       0.007
   0.20000000  0.42857143  0.25000000       0.007
   0.30000000  0.42857143  0.25000000       0.007
   0.40000000  0.42857143  0.25000000       0.007
   0.50000000  0.42857143  0.25000000       0.007
  -0.40000000  0.42857143  0.25000000       0.007
  -0.30000000  0.42857143  0.25000000       0.007
  -0.20000000  0.42857143  0.25000000       0.007
  -0.10000000  0.42857143  0.25000000       0.007
   0.00000000 -0.42857143  0.25000000       0.007
   0.10000000 -0.42857143  0.25000000       0.007
   0.20000000 -0.42857143  0.25000000       0.007
   0.30000000 -0.42857143  0.25000000       0.007
   0.40000000 -0.42857143  0.25000000       0.007
   0.50000000 -0.42857143  0.25000000       0.007
  -0.40000000 -0.42857143  0.25000000       0.007
  -0.30000000 -0.42857143  0.25000000       0.007
  -0.20000000 -0.42857143  0.25000000       0.007
  -0.10000000 -0.42857143  0.25000000       0.007
  -0.00000000 -0.28571429  0.25000000       0.007
   0.10000000 -0.28571429  0.25000000       0.007
   0.20000000 -0.28571429  0.25000000       0.007
   0.30000000 -0.28571429  0.25000000       0.007
   0.40000000 -0.28571429  0.25000000       0.007
   0.50000000 -0.28571429  0.25000000       0.007
  -0.40000000 -0.28571429  0.25000000       0.007
  -0.30000000 -0.28571429  0.25000000       0.007
  -0.20000000 -0.28571429  0.25000000       0.007
  -0.10000000 -0.28571429  0.25000000       0.007
  -0.00000000 -0.14285714  0.25000000       0.007
   0.10000000 -0.14285714  0.25000000       0.007
   0.20000000 -0.14285714  0.25000000       0.007
   0.30000000 -0.14285714  0.25000000       0.007
   0.40000000 -0.14285714  0.25000000       0.007
   0.50000000 -0.14285714  0.25000000       0.007
  -0.40000000 -0.14285714  0.25000000       0.007
  -0.30000000 -0.14285714  0.25000000       0.007
  -0.20000000 -0.14285714  0.25000000       0.007
  -0.10000000 -0.14285714  0.25000000       0.007
  -0.00000000  0.00000000  0.50000000       0.004
   0.10000000  0.00000000  0.50000000       0.007
   0.20000000 -0.00000000  0.50000000       0.007
   0.30000000  0.00000000  0.50000000       0.007
   0.40000000  0.00000000  0.50000000       0.007
   0.50000000  0.00000000  0.50000000       0.004
  -0.00000000  0.14285714  0.50000000       0.007
   0.10000000  0.14285714  0.50000000       0.007
   0.20000000  0.14285714  0.50000000       0.007
   0.30000000  0.14285714  0.50000000       0.007
   0.40000000  0.14285714  0.50000000       0.007
   0.50000000  0.14285714  0.50000000       0.007
  -0.40000000  0.14285714  0.50000000       0.007
  -0.30000000  0.14285714  0.50000000       0.007
  -0.20000000  0.14285714  0.50000000       0.007
  -0.10000000  0.14285714  0.50000000       0.007
   0.00000000  0.28571429  0.50000000       0.007
   0.10000000  0.28571429  0.50000000       0.007
   0.20000000  0.28571429  0.50000000       0.007
   0.30000000  0.28571429  0.50000000       0.007
   0.40000000  0.28571429  0.50000000       0.007
   0.50000000  0.28571429  0.50000000       0.007
  -0.40000000  0.28571429  0.50000000       0.007
  -0.30000000  0.28571429  0.50000000       0.007
  -0.20000000  0.28571429  0.50000000       0.007
  -0.10000000  0.28571429  0.50000000       0.007
   0.00000000  0.42857143  0.50000000       0.007
   0.10000000  0.42857143  0.50000000       0.007
   0.20000000  0.42857143  0.50000000       0.007
   0.30000000  0.42857143  0.50000000       0.007
   0.40000000  0.42857143  0.50000000       0.007
   0.50000000  0.42857143  0.50000000       0.007
  -0.40000000  0.42857143  0.50000000       0.007
  -0.30000000  0.42857143  0.50000000       0.007
  -0.20000000  0.42857143  0.50000000       0.007
  -0.10000000  0.42857143  0.50000000       0.007
 
 position of ions in fractional coordinates (direct lattice) 
   0.24999847  0.03174946  0.86401357
   0.75000233  0.96825231  0.13598395
   0.74999984  0.53181077  0.63599680
   0.24999904  0.46819357  0.36400388
   0.25000705  0.70976872  0.53362211
   0.75000535  0.20979862  0.96635494
   0.24999754  0.79020100  0.03364980
   0.74999071  0.29023415  0.46637136
   0.25000476  0.17634097  0.22196871
   0.24999595  0.32364569  0.72197149
   0.75000247  0.67635634  0.27802710
   0.74999649  0.82364938  0.77803731
 
 position of ions in cartesian coordinates  (Angst):
   0.71728067  0.14582838  8.01639585
   2.15179755  4.45856312  1.26148015
   2.15181261  2.44861214  5.90073494
   0.71726010  2.15579120  3.37717041
   0.71727691  3.26813105  4.95085666
   2.15184426  0.96566101  8.96589407
   0.71723995  3.63872059  0.31204890
   2.15179259  1.33626554  4.32698175
   0.71728486  0.81192062  2.05941242
   0.71726123  1.49002077  6.69845745
   2.15181017  3.11437195  2.57942845
   2.15179467  3.79241833  7.21854249
 


--------------------------------------------------------------------------------------------------------


 k-point  1 :   0.0000 0.0000 0.0000  plane waves:    3293
 k-point  2 :   0.1000-0.0000 0.0000  plane waves:    3303
 k-point  3 :   0.2000 0.0000 0.0000  plane waves:    3309
 k-point  4 :   0.3000-0.0000 0.0000  plane waves:    3305
 k-point  5 :   0.4000 0.0000 0.0000  plane waves:    3314
 k-point  6 :   0.5000-0.0000-0.0000  plane waves:    3326
 k-point  7 :   0.0000 0.1429 0.0000  plane waves:    3301
 k-point  8 :   0.1000 0.1429 0.0000  plane waves:    3307
 k-point  9 :   0.2000 0.1429 0.0000  plane waves:    3302
 k-point 10 :   0.3000 0.1429 0.0000  plane waves:    3303
 k-point 11 :   0.4000 0.1429-0.0000  plane waves:    3300
 k-point 12 :   0.5000 0.1429 0.0000  plane waves:    3322
 k-point 13 :  -0.4000 0.1429 0.0000  plane waves:    3300
 k-point 14 :  -0.3000 0.1429 0.0000  plane waves:    3303
 k-point 15 :  -0.2000 0.1429-0.0000  plane waves:    3302
 k-point 16 :  -0.1000 0.1429-0.0000  plane waves:    3307
 k-point 17 :   0.0000 0.2857-0.0000  plane waves:    3315
 k-point 18 :   0.1000 0.2857-0.0000  plane waves:    3313
 k-point 19 :   0.2000 0.2857 0.0000  plane waves:    3306
 k-point 20 :   0.3000 0.2857-0.0000  plane waves:    3296
 k-point 21 :   0.4000 0.2857 0.0000  plane waves:    3293
 k-point 22 :   0.5000 0.2857-0.0000  plane waves:    3292
 k-point 23 :  -0.4000 0.2857-0.0000  plane waves:    3293
 k-point 24 :  -0.3000 0.2857 0.0000  plane waves:    3296
 k-point 25 :  -0.2000 0.2857-0.0000  plane waves:    3306
 k-point 26 :  -0.1000 0.2857 0.0000  plane waves:    3313
 k-point 27 :   0.0000 0.4286-0.0000  plane waves:    3313
 k-point 28 :   0.1000 0.4286 0.0000  plane waves:    3306
 k-point 29 :   0.2000 0.4286 0.0000  plane waves:    3290
 k-point 30 :   0.3000 0.4286 0.0000  plane waves:    3288
 k-point 31 :   0.4000 0.4286 0.0000  plane waves:    3287
 k-point 32 :   0.5000 0.4286 0.0000  plane waves:    3272
 k-point 33 :  -0.4000 0.4286 0.0000  plane waves:    3287
 k-point 34 :  -0.3000 0.4286-0.0000  plane waves:    3288
 k-point 35 :  -0.2000 0.4286 0.0000  plane waves:    3290
 k-point 36 :  -0.1000 0.4286 0.0000  plane waves:    3306
 k-point 37 :  -0.0000 0.0000 0.2500  plane waves:    3303
 k-point 38 :   0.1000-0.0000 0.2500  plane waves:    3307
 k-point 39 :   0.2000 0.0000 0.2500  plane waves:    3300
 k-point 40 :   0.3000 0.0000 0.2500  plane waves:    3300
 k-point 41 :   0.4000 0.0000 0.2500  plane waves:    3304
 k-point 42 :   0.5000 0.0000 0.2500  plane waves:    3312
 k-point 43 :  -0.4000 0.0000 0.2500  plane waves:    3304
 k-point 44 :  -0.3000 0.0000 0.2500  plane waves:    3300
 k-point 45 :  -0.2000 0.0000 0.2500  plane waves:    3300
 k-point 46 :  -0.1000 0.0000 0.2500  plane waves:    3307
 k-point 47 :   0.0000 0.1429 0.2500  plane waves:    3315
 k-point 48 :   0.1000 0.1429 0.2500  plane waves:    3321
 k-point 49 :   0.2000 0.1429 0.2500  plane waves:    3299
 k-point 50 :   0.3000 0.1429 0.2500  plane waves:    3294
 k-point 51 :   0.4000 0.1429 0.2500  plane waves:    3301
 k-point 52 :   0.5000 0.1429 0.2500  plane waves:    3306
 k-point 53 :  -0.4000 0.1429 0.2500  plane waves:    3301
 k-point 54 :  -0.3000 0.1429 0.2500  plane waves:    3294
 k-point 55 :  -0.2000 0.1429 0.2500  plane waves:    3299
 k-point 56 :  -0.1000 0.1429 0.2500  plane waves:    3321
 k-point 57 :   0.0000 0.2857 0.2500  plane waves:    3317
 k-point 58 :   0.1000 0.2857 0.2500  plane waves:    3317
 k-point 59 :   0.2000 0.2857 0.2500  plane waves:    3300
 k-point 60 :   0.3000 0.2857 0.2500  plane waves:    3295
 k-point 61 :   0.4000 0.2857 0.2500  plane waves:    3292
 k-point 62 :   0.5000 0.2857 0.2500  plane waves:    3286
 k-point 63 :  -0.4000 0.2857 0.2500  plane waves:    3292
 k-point 64 :  -0.3000 0.2857 0.2500  plane waves:    3295
 k-point 65 :  -0.2000 0.2857 0.2500  plane waves:    3300
 k-point 66 :  -0.1000 0.2857 0.2500  plane waves:    3317
 k-point 67 :   0.0000 0.4286 0.2500  plane waves:    3311
 k-point 68 :   0.1000 0.4286 0.2500  plane waves:    3298
 k-point 69 :   0.2000 0.4286 0.2500  plane waves:    3307
 k-point 70 :   0.3000 0.4286 0.2500  plane waves:    3290
 k-point 71 :   0.4000 0.4286 0.2500  plane waves:    3279
 k-point 72 :   0.5000 0.4286 0.2500  plane waves:    3276
 k-point 73 :  -0.4000 0.4286 0.2500  plane waves:    3279
 k-point 74 :  -0.3000 0.4286 0.2500  plane waves:    3290
 k-point 75 :  -0.2000 0.4286 0.2500  plane waves:    3307
 k-point 76 :  -0.1000 0.4286 0.2500  plane waves:    3298
 k-point 77 :   0.0000-0.4286 0.2500  plane waves:    3311
 k-point 78 :   0.1000-0.4286 0.2500  plane waves:    3298
 k-point 79 :   0.2000-0.4286 0.2500  plane waves:    3305
 k-point 80 :   0.3000-0.4286 0.2500  plane waves:    3290
 k-point 81 :   0.4000-0.4286 0.2500  plane waves:    3279
 k-point 82 :   0.5000-0.4286 0.2500  plane waves:    3276
 k-point 83 :  -0.4000-0.4286 0.2500  plane waves:    3279
 k-point 84 :  -0.3000-0.4286 0.2500  plane waves:    3290
 k-point 85 :  -0.2000-0.4286 0.2500  plane waves:    3305
 k-point 86 :  -0.1000-0.4286 0.2500  plane waves:    3298
 k-point 87 :  -0.0000-0.2857 0.2500  plane waves:    3319
 k-point 88 :   0.1000-0.2857 0.2500  plane waves:    3316
 k-point 89 :   0.2000-0.2857 0.2500  plane waves:    3300
 k-point 90 :   0.3000-0.2857 0.2500  plane waves:    3295
 k-point 91 :   0.4000-0.2857 0.2500  plane waves:    3292
 k-point 92 :   0.5000-0.2857 0.2500  plane waves:    3286
 k-point 93 :  -0.4000-0.2857 0.2500  plane waves:    3292
 k-point 94 :  -0.3000-0.2857 0.2500  plane waves:    3295
 k-point 95 :  -0.2000-0.2857 0.2500  plane waves:    3300
 k-point 96 :  -0.1000-0.2857 0.2500  plane waves:    3316
 k-point 97 :  -0.0000-0.1429 0.2500  plane waves:    3315
 k-point 98 :   0.1000-0.1429 0.2500  plane waves:    3321
 k-point 99 :   0.2000-0.1429 0.2500  plane waves:    3299
 k-point ** :   0.3000-0.1429 0.2500  plane waves:    3294
 k-point ** :   0.4000-0.1429 0.2500  plane waves:    3300
 k-point ** :   0.5000-0.1429 0.2500  plane waves:    3304
 k-point ** :  -0.4000-0.1429 0.2500  plane waves:    3300
 k-point ** :  -0.3000-0.1429 0.2500  plane waves:    3294
 k-point ** :  -0.2000-0.1429 0.2500  plane waves:    3299
 k-point ** :  -0.1000-0.1429 0.2500  plane waves:    3321
 k-point ** :  -0.0000 0.0000 0.5000  plane waves:    3294
 k-point ** :   0.1000 0.0000 0.5000  plane waves:    3312
 k-point ** :   0.2000-0.0000 0.5000  plane waves:    3302
 k-point ** :   0.3000 0.0000 0.5000  plane waves:    3300
 k-point ** :   0.4000 0.0000 0.5000  plane waves:    3316
 k-point ** :   0.5000 0.0000 0.5000  plane waves:    3300
 k-point ** :  -0.0000 0.1429 0.5000  plane waves:    3324
 k-point ** :   0.1000 0.1429 0.5000  plane waves:    3318
 k-point ** :   0.2000 0.1429 0.5000  plane waves:    3314
 k-point ** :   0.3000 0.1429 0.5000  plane waves:    3289
 k-point ** :   0.4000 0.1429 0.5000  plane waves:    3297
 k-point ** :   0.5000 0.1429 0.5000  plane waves:    3296
 k-point ** :  -0.4000 0.1429 0.5000  plane waves:    3297
 k-point ** :  -0.3000 0.1429 0.5000  plane waves:    3289
 k-point ** :  -0.2000 0.1429 0.5000  plane waves:    3314
 k-point ** :  -0.1000 0.1429 0.5000  plane waves:    3318
 k-point ** :   0.0000 0.2857 0.5000  plane waves:    3311
 k-point ** :   0.1000 0.2857 0.5000  plane waves:    3316
 k-point ** :   0.2000 0.2857 0.5000  plane waves:    3314
 k-point ** :   0.3000 0.2857 0.5000  plane waves:    3284
 k-point ** :   0.4000 0.2857 0.5000  plane waves:    3288
 k-point ** :   0.5000 0.2857 0.5000  plane waves:    3296
 k-point ** :  -0.4000 0.2857 0.5000  plane waves:    3288
 k-point ** :  -0.3000 0.2857 0.5000  plane waves:    3284
 k-point ** :  -0.2000 0.2857 0.5000  plane waves:    3314
 k-point ** :  -0.1000 0.2857 0.5000  plane waves:    3316
 k-point ** :   0.0000 0.4286 0.5000  plane waves:    3290
 k-point ** :   0.1000 0.4286 0.5000  plane waves:    3300
 k-point ** :   0.2000 0.4286 0.5000  plane waves:    3308
 k-point ** :   0.3000 0.4286 0.5000  plane waves:    3304
 k-point ** :   0.4000 0.4286 0.5000  plane waves:    3282
 k-point ** :   0.5000 0.4286 0.5000  plane waves:    3272
 k-point ** :  -0.4000 0.4286 0.5000  plane waves:    3282
 k-point ** :  -0.3000 0.4286 0.5000  plane waves:    3304
 k-point ** :  -0.2000 0.4286 0.5000  plane waves:    3308
 k-point ** :  -0.1000 0.4286 0.5000  plane waves:    3300

 maximum and minimum number of plane-waves per node :       855      792

 maximum number of plane-waves:      3326
 maximum index in each direction: 
   IXMAX=    5   IYMAX=    8   IZMAX=   17
   IXMIN=   -5   IYMIN=   -8   IZMIN=  -17


 parallel 3D FFT for wavefunctions:
    minimum data exchange during FFTs selected (reduces bandwidth)
 parallel 3D FFT for charge:
    minimum data exchange during FFTs selected (reduces bandwidth)


 total amount of memory used by VASP MPI-rank0   129471. kBytes
=======================================================================

   base      :      30000. kBytes
   nonl-proj :      34513. kBytes
   fftplans  :       1491. kBytes
   grid      :       3666. kBytes
   one-center:         93. kBytes
   wavefun   :      59708. kBytes
 
     INWAV:  cpu time    3.6708: real time    3.6774
 Broyden mixing: mesh for mixing (old mesh)
   NGX = 11   NGY = 17   NGZ = 35
  (NGX  = 48   NGY  = 72   NGZ  =140)
  gives a total of   6545 points

 charge density for first step will be calculated from the start-wavefunctions


--------------------------------------------------------------------------------------------------------


 Maximum index for augmentation-charges          935 (set IRDMAX)


--------------------------------------------------------------------------------------------------------


 initial charge from wavefunction
 First call to EWALD:  gamma=   0.357
 Maximum number of real-space cells 4x 3x 2
 Maximum number of reciprocal cells 2x 3x 5

    FEWALD:  cpu time    0.0022: real time    0.0031


--------------------------------------- Iteration      1(   1)  ---------------------------------------


    POTLOK:  cpu time    0.0310: real time    0.0536
    SETDIJ:  cpu time    0.3099: real time    0.3099
     EDDAV:  cpu time   10.4575: real time   10.4600
       DOS:  cpu time    0.0024: real time    0.0023
    CHARGE:  cpu time    0.6069: real time    0.6070
    MIXING:  cpu time    0.0022: real time    0.0021
    --------------------------------------------
      LOOP:  cpu time   11.4099: real time   11.4351

 eigenvalue-minimisations  : 35720
 total energy-change (2. order) :-0.9597718E+02  (-0.2107521E-03)
 number of electron     100.0000027 magnetization       0.0000000
 augmentation part       33.7148449 magnetization       0.0000082

 Broyden mixing:
  rms(total) = 0.70173E-03    rms(broyden)= 0.69606E-03
  rms(prec ) = 0.89997E-03
  weight for this iteration     100.00

 Free energy of the ion-electron system (eV)
  ---------------------------------------------------
  alpha Z        PSCENC =       453.83610551
  Ewald energy   TEWEN  =     -7502.92034001
  -Hartree energ DENC   =     -3597.87196396
  -exchange      EXHF   =         0.00000000
  -V(xc)+E(xc)   XCENC  =       498.94812155
  PAW double counting   =     12054.73540596   -12293.41087347
  entropy T*S    EENTRO =        -0.00000000
  eigenvalues    EBANDS =     -1269.20002052
  atomic energy  EATOM  =     11559.90638050
  Solvation  Ediel_sol  =         0.00000000
  ---------------------------------------------------
  free energy    TOTEN  =       -95.97718445 eV

  energy without entropy =      -95.97718445  energy(sigma->0) =      -95.97718445


--------------------------------------------------------------------------------------------------------




--------------------------------------- Iteration      1(   2)  ---------------------------------------


    POTLOK:  cpu time    0.0407: real time    0.0521
    SETDIJ:  cpu time    0.3071: real time    0.3071
    EDDIAG:  cpu time    2.3957: real time    2.3959
  RMM-DIIS:  cpu time    5.9504: real time    5.9509
    ORTHCH:  cpu time    0.3536: real time    0.3536
       DOS:  cpu time    0.0024: real time    0.0024
    CHARGE:  cpu time    0.5104: real time    0.5106
    MIXING:  cpu time    0.0010: real time    0.0010
    --------------------------------------------
      LOOP:  cpu time    9.5612: real time    9.5735

 eigenvalue-minimisations  : 34862
 total energy-change (2. order) :-0.8518964E-06  (-0.1116911E-05)
 number of electron     100.0000027 magnetization       0.0000000
 augmentation part       33.7159526 magnetization      -0.0000246

 Broyden mixing:
  rms(total) = 0.11749E-02    rms(broyden)= 0.11746E-02
  rms(prec ) = 0.14299E-02
  weight for this iteration     100.00

 eigenvalues of (default mixing * dielectric matrix)
  average eigenvalue GAMMA=   0.3217
  0.3217

 Free energy of the ion-electron system (eV)
  ---------------------------------------------------
  alpha Z        PSCENC =       453.83610551
  Ewald energy   TEWEN  =     -7502.92034001
  -Hartree energ DENC   =     -3597.83619663
  -exchange      EXHF   =         0.00000000
  -V(xc)+E(xc)   XCENC  =       498.94730195
  PAW double counting   =     12054.75829252   -12293.43187013
  entropy T*S    EENTRO =        -0.00000000
  eigenvalues    EBANDS =     -1269.23685901
  atomic energy  EATOM  =     11559.90638050
  Solvation  Ediel_sol  =         0.00000000
  ---------------------------------------------------
  free energy    TOTEN  =       -95.97718530 eV

  energy without entropy =      -95.97718530  energy(sigma->0) =      -95.97718530


--------------------------------------------------------------------------------------------------------




--------------------------------------- Iteration      1(   3)  ---------------------------------------


    POTLOK:  cpu time    0.0339: real time    0.0357
    SETDIJ:  cpu time    0.3024: real time    0.3064
    EDDIAG:  cpu time    2.1269: real time    2.1271
  RMM-DIIS:  cpu time    3.4842: real time    3.4847
    ORTHCH:  cpu time    0.3529: real time    0.3529
       DOS:  cpu time    0.0021: real time    0.0021
    CHARGE:  cpu time    0.5111: real time    0.5111
    MIXING:  cpu time    0.0008: real time    0.0008
    --------------------------------------------
      LOOP:  cpu time    6.8143: real time    6.8207

 eigenvalue-minimisations  : 21007
 total energy-change (2. order) : 0.1119382E-05  (-0.1630605E-06)
 number of electron     100.0000027 magnetization       0.0000000
 augmentation part       33.7154345 magnetization       0.0000045

 Broyden mixing:
  rms(total) = 0.20269E-03    rms(broyden)= 0.20254E-03
  rms(prec ) = 0.23948E-03
  weight for this iteration     100.00

 eigenvalues of (default mixing * dielectric matrix)
  average eigenvalue GAMMA=   0.4649
  0.4649  0.4649

 Free energy of the ion-electron system (eV)
  ---------------------------------------------------
  alpha Z        PSCENC =       453.83610551
  Ewald energy   TEWEN  =     -7502.92034001
  -Hartree energ DENC   =     -3597.85058054
  -exchange      EXHF   =         0.00000000
  -V(xc)+E(xc)   XCENC  =       498.94748013
  PAW double counting   =     12054.82104721   -12293.49608588
  entropy T*S    EENTRO =        -0.00000000
  eigenvalues    EBANDS =     -1269.22119110
  atomic energy  EATOM  =     11559.90638050
  Solvation  Ediel_sol  =         0.00000000
  ---------------------------------------------------
  free energy    TOTEN  =       -95.97718418 eV

  energy without entropy =      -95.97718418  energy(sigma->0) =      -95.97718418


--------------------------------------------------------------------------------------------------------




--------------------------------------- Iteration      1(   4)  ---------------------------------------


    POTLOK:  cpu time    0.0246: real time    0.0255
    SETDIJ:  cpu time    0.3040: real time    0.3040
    EDDIAG:  cpu time    2.1004: real time    2.1005
  RMM-DIIS:  cpu time    3.0102: real time    3.0103
    ORTHCH:  cpu time    0.3496: real time    0.3496
       DOS:  cpu time    0.0021: real time    0.0021
    --------------------------------------------
      LOOP:  cpu time    5.7910: real time    5.7920

 eigenvalue-minimisations  : 18425
 total energy-change (2. order) : 0.3781133E-07  (-0.3161289E-07)
 number of electron     100.0000027 magnetization       0.0000000
 augmentation part       33.7154345 magnetization       0.0000045

 Free energy of the ion-electron system (eV)
  ---------------------------------------------------
  alpha Z        PSCENC =       453.83610551
  Ewald energy   TEWEN  =     -7502.92034001
  -Hartree energ DENC   =     -3597.85211878
  -exchange      EXHF   =         0.00000000
  -V(xc)+E(xc)   XCENC  =       498.94744148
  PAW double counting   =     12054.86750179   -12293.54285810
  entropy T*S    EENTRO =        -0.00000000
  eigenvalues    EBANDS =     -1269.21929653
  atomic energy  EATOM  =     11559.90638050
  Solvation  Ediel_sol  =         0.00000000
  ---------------------------------------------------
  free energy    TOTEN  =       -95.97718414 eV

  energy without entropy =      -95.97718414  energy(sigma->0) =      -95.97718414


--------------------------------------------------------------------------------------------------------




 average (electrostatic) potential at core
  the test charge radii are     0.9577  0.7215
  (the norm of the test charge is              1.0000)
       1 -71.7035       2 -71.7033       3 -71.7030       4 -71.7029       5 -71.2342
       6 -71.2346       7 -71.2345       8 -71.2341       9 -71.1650      10 -71.1635
      11 -71.1632      12 -71.1653
 
 
 
 E-fermi :   4.0212     XC(G=0): -11.2909     alpha+bet :-11.6111


 spin component 1

 k-point     1 :       0.0000    0.0000    0.0000
  band No.  band energies     occupation 
      1     -46.3207      1.00000
      2     -46.3203      1.00000
      3     -46.2614      1.00000
      4     -46.2610      1.00000
      5     -46.1911      1.00000
      6     -46.1909      1.00000
      7     -43.4485      1.00000
      8     -43.4477      1.00000
      9     -43.4208      1.00000
     10     -43.4202      1.00000
     11     -43.2922      1.00000
     12     -43.2917      1.00000
     13     -15.5484      1.00000
     14     -14.9232      1.00000
     15     -14.6800      1.00000
     16     -13.8686      1.00000
     17     -13.6318      1.00000
     18     -13.5845      1.00000
     19     -13.4277      1.00000
     20     -13.4194      1.00000
     21      -3.0124      1.00000
     22      -2.4201      1.00000
     23      -2.1566      1.00000
     24      -1.9691      1.00000
     25      -1.4158      1.00000
     26      -1.3408      1.00000
     27      -1.3316      1.00000
     28      -1.2840      1.00000
     29      -0.8974      1.00000
     30      -0.8378      1.00000
     31      -0.6277      1.00000
     32      -0.3601      1.00000
     33       0.0886      1.00000
     34       0.5288      1.00000
     35       0.7046      1.00000
     36       0.9577      1.00000
     37       0.9640      1.00000
     38       1.3483      1.00000
     39       1.6015      1.00000
     40       1.9601      1.00000
     41       2.2228      1.00000
     42       2.3344      1.00000
     43       2.4240      1.00000
     44       2.6154      1.00000
     45       2.6346      1.00000
     46       2.9906      1.00000
     47       3.1200      1.00000
     48       3.1455      1.00000
     49       3.2529      1.00000
     50       3.5205      1.00000
     51       4.7660      0.00000
     52       5.0549      0.00000
     53       5.0937      0.00000
     54       5.5215      0.00000
     55       5.6300      0.00000
     56       5.8952      0.00000
     57       6.1088      0.00000
     58       6.2897      0.00000
     59       6.6818      0.00000
     60       7.1890      0.00000

 k-point     2 :       0.1000   -0.0000    0.0000
  band No.  band energies     occupation 
      1     -46.3309      1.00000
      2     -46.3305      1.00000
      3     -46.2601      1.00000
      4     -46.2597      1.00000
      5     -46.1901      1.00000
      6     -46.1898      1.00000
      7     -43.4604      1.00000
      8     -43.4596      1.00000
      9     -43.4194      1.00000
     10     -43.4188      1.00000
     11     -43.2907      1.00000
     12     -43.2902      1.00000
     13     -15.4544      1.00000
     14     -14.8516      1.00000
     15     -14.6110      1.00000
     16     -13.8378      1.00000
     17     -13.6393      1.00000
     18     -13.5925      1.00000
     19     -13.4502      1.00000
     20     -13.4374      1.00000
     21      -2.8811      1.00000
     22      -2.3101      1.00000
     23      -2.0750      1.00000
     24      -1.8922      1.00000
     25      -1.5471      1.00000
     26      -1.3589      1.00000
     27      -1.3436      1.00000
     28      -1.3273      1.00000
     29      -0.9421      1.00000
     30      -0.8140      1.00000
     31      -0.5253      1.00000
     32      -0.1524      1.00000
     33      -0.1073      1.00000
     34       0.5056      1.00000
     35       0.5497      1.00000
     36       0.8418      1.00000
     37       0.9032      1.00000
     38       1.1712      1.00000
     39       1.4091      1.00000
     40       1.7371      1.00000
     41       1.9463      1.00000
     42       2.3239      1.00000
     43       2.5225      1.00000
     44       2.6858      1.00000
     45       2.8361      1.00000
     46       2.8402      1.00000
     47       3.0525      1.00000
     48       3.1638      1.00000
     49       3.3101      1.00000
     50       3.4767      1.00000
     51       4.7530      0.00000
     52       5.1558      0.00000
     53       5.3161      0.00000
     54       5.5776      0.00000
     55       5.7259      0.00000
     56       5.9759      0.00000
     57       6.0669      0.00000
     58       6.2298      0.00000
     59       6.4838      0.00000
     60       7.0153      0.00000

 k-point     3 :       0.2000    0.0000    0.0000
  band No.  band energies     occupation 
      1     -46.3575      1.00000
      2     -46.3571      1.00000
      3     -46.2566      1.00000
      4     -46.2563      1.00000
      5     -46.1873      1.00000
      6     -46.1870      1.00000
      7     -43.4916      1.00000
      8     -43.4908      1.00000
      9     -43.4155      1.00000
     10     -43.4150      1.00000
     11     -43.2869      1.00000
     12     -43.2864      1.00000
     13     -15.1900      1.00000
     14     -14.6561      1.00000
     15     -14.4244      1.00000
     16     -13.7692      1.00000
     17     -13.6577      1.00000
     18     -13.6142      1.00000
     19     -13.5144      1.00000
     20     -13.4868      1.00000
     21      -2.5197      1.00000
     22      -2.0385      1.00000
     23      -1.8699      1.00000
     24      -1.7133      1.00000
     25      -1.6792      1.00000
     26      -1.5624      1.00000
     27      -1.4251      1.00000
     28      -1.2659      1.00000
     29      -0.9444      1.00000
     30      -0.6363      1.00000
     31      -0.6327      1.00000
     32      -0.2579      1.00000
     33      -0.2499      1.00000
     34      -0.0805      1.00000
     35       0.4445      1.00000
     36       0.7736      1.00000
     37       0.8768      1.00000
     38       1.1097      1.00000
     39       1.1233      1.00000
     40       1.2358      1.00000
     41       1.7428      1.00000
     42       2.1760      1.00000
     43       2.2989      1.00000
     44       2.6653      1.00000
     45       2.7667      1.00000
     46       2.8346      1.00000
     47       3.0229      1.00000
     48       3.2306      1.00000
     49       3.4001      1.00000
     50       3.4129      1.00000
     51       4.8815      0.00000
     52       5.3011      0.00000
     53       5.5554      0.00000
     54       5.6445      0.00000
     55       5.8278      0.00000
     56       5.9938      0.00000
     57       6.0136      0.00000
     58       6.0761      0.00000
     59       6.2765      0.00000
     60       6.6943      0.00000

 k-point     4 :       0.3000   -0.0000    0.0000
  band No.  band energies     occupation 
      1     -46.3902      1.00000
      2     -46.3898      1.00000
      3     -46.2524      1.00000
      4     -46.2520      1.00000
      5     -46.1838      1.00000
      6     -46.1836      1.00000
      7     -43.5299      1.00000
      8     -43.5291      1.00000
      9     -43.4108      1.00000
     10     -43.4104      1.00000
     11     -43.2822      1.00000
     12     -43.2817      1.00000
     13     -14.8070      1.00000
     14     -14.3904      1.00000
     15     -14.1786      1.00000
     16     -13.7270      1.00000
     17     -13.6780      1.00000
     18     -13.6444      1.00000
     19     -13.6102      1.00000
     20     -13.5538      1.00000
     21      -2.0553      1.00000
     22      -1.9096      1.00000
     23      -1.7747      1.00000
     24      -1.7084      1.00000
     25      -1.6518      1.00000
     26      -1.5644      1.00000
     27      -1.5261      1.00000
     28      -1.3709      1.00000
     29      -1.0756      1.00000
     30      -0.9159      1.00000
     31      -0.6450      1.00000
     32      -0.3192      1.00000
     33      -0.1622      1.00000
     34       0.0387      1.00000
     35       0.2759      1.00000
     36       0.5274      1.00000
     37       0.7404      1.00000
     38       0.8100      1.00000
     39       1.0697      1.00000
     40       1.1528      1.00000
     41       1.7856      1.00000
     42       1.8926      1.00000
     43       1.9503      1.00000
     44       2.2061      1.00000
     45       2.6675      1.00000
     46       2.8221      1.00000
     47       2.9926      1.00000
     48       3.1891      1.00000
     49       3.3425      1.00000
     50       3.4074      1.00000
     51       5.0522      0.00000
     52       5.4441      0.00000
     53       5.4994      0.00000
     54       5.5793      0.00000
     55       5.7491      0.00000
     56       5.8765      0.00000
     57       5.8845      0.00000
     58       6.1746      0.00000
     59       6.1853      0.00000
     60       6.5210      0.00000

 k-point     5 :       0.4000    0.0000    0.0000
  band No.  band energies     occupation 
      1     -46.4166      1.00000
      2     -46.4161      1.00000
      3     -46.2490      1.00000
      4     -46.2486      1.00000
      5     -46.1810      1.00000
      6     -46.1807      1.00000
      7     -43.5608      1.00000
      8     -43.5600      1.00000
      9     -43.4071      1.00000
     10     -43.4067      1.00000
     11     -43.2783      1.00000
     12     -43.2778      1.00000
     13     -14.3871      1.00000
     14     -14.1274      1.00000
     15     -13.9573      1.00000
     16     -13.7923      1.00000
     17     -13.7282      1.00000
     18     -13.6962      1.00000
     19     -13.6809      1.00000
     20     -13.6084      1.00000
     21      -2.3460      1.00000
     22      -2.0829      1.00000
     23      -1.8430      1.00000
     24      -1.8079      1.00000
     25      -1.4889      1.00000
     26      -1.4411      1.00000
     27      -1.4335      1.00000
     28      -1.2354      1.00000
     29      -1.0789      1.00000
     30      -0.8853      1.00000
     31      -0.6069      1.00000
     32      -0.2254      1.00000
     33      -0.0699      1.00000
     34       0.1389      1.00000
     35       0.2608      1.00000
     36       0.4861      1.00000
     37       0.7999      1.00000
     38       0.9322      1.00000
     39       0.9642      1.00000
     40       1.0570      1.00000
     41       1.5820      1.00000
     42       1.6270      1.00000
     43       1.6900      1.00000
     44       1.7965      1.00000
     45       2.4840      1.00000
     46       2.5897      1.00000
     47       2.7730      1.00000
     48       3.1630      1.00000
     49       3.3321      1.00000
     50       3.3988      1.00000
     51       5.2089      0.00000
     52       5.3416      0.00000
     53       5.4677      0.00000
     54       5.5264      0.00000
     55       5.6883      0.00000
     56       5.8124      0.00000
     57       5.8849      0.00000
     58       6.0498      0.00000
     59       6.1344      0.00000
     60       6.4815      0.00000

 k-point     6 :       0.5000   -0.0000   -0.0000
  band No.  band energies     occupation 
      1     -46.4267      1.00000
      2     -46.4262      1.00000
      3     -46.2477      1.00000
      4     -46.2473      1.00000
      5     -46.1799      1.00000
      6     -46.1796      1.00000
      7     -43.5726      1.00000
      8     -43.5717      1.00000
      9     -43.4057      1.00000
     10     -43.4053      1.00000
     11     -43.2768      1.00000
     12     -43.2763      1.00000
     13     -14.0489      1.00000
     14     -13.9971      1.00000
     15     -13.9501      1.00000
     16     -13.9014      1.00000
     17     -13.7918      1.00000
     18     -13.7197      1.00000
     19     -13.6993      1.00000
     20     -13.6289      1.00000
     21      -2.5192      1.00000
     22      -2.3235      1.00000
     23      -1.8995      1.00000
     24      -1.7920      1.00000
     25      -1.4823      1.00000
     26      -1.2939      1.00000
     27      -1.2688      1.00000
     28      -1.1584      1.00000
     29      -0.9636      1.00000
     30      -0.8762      1.00000
     31      -0.5551      1.00000
     32      -0.5532      1.00000
     33      -0.0022      1.00000
     34       0.2889      1.00000
     35       0.4450      1.00000
     36       0.6044      1.00000
     37       0.8089      1.00000
     38       0.8907      1.00000
     39       1.0163      1.00000
     40       1.2046      1.00000
     41       1.2856      1.00000
     42       1.5059      1.00000
     43       1.5629      1.00000
     44       1.6880      1.00000
     45       2.2923      1.00000
     46       2.3303      1.00000
     47       2.7665      1.00000
     48       3.1944      1.00000
     49       3.2797      1.00000
     50       3.4187      1.00000
     51       5.2839      0.00000
     52       5.3802      0.00000
     53       5.4303      0.00000
     54       5.4838      0.00000
     55       5.5330      0.00000
     56       5.7815      0.00000
     57       5.9049      0.00000
     58       6.0184      0.00000
     59       6.1380      0.00000
     60       6.4720      0.00000

 k-point     7 :       0.0000    0.1429    0.0000
  band No.  band energies     occupation 
      1     -46.3207      1.00000
      2     -46.3203      1.00000
      3     -46.2614      1.00000
      4     -46.2610      1.00000
      5     -46.1912      1.00000
      6     -46.1909      1.00000
      7     -43.4485      1.00000
      8     -43.4477      1.00000
      9     -43.4208      1.00000
     10     -43.4202      1.00000
     11     -43.2922      1.00000
     12     -43.2917      1.00000
     13     -15.5035      1.00000
     14     -14.9294      1.00000
     15     -14.6419      1.00000
     16     -13.9063      1.00000
     17     -13.6335      1.00000
     18     -13.5968      1.00000
     19     -13.4517      1.00000
     20     -13.4492      1.00000
     21      -2.9847      1.00000
     22      -2.3829      1.00000
     23      -2.1738      1.00000
     24      -1.9477      1.00000
     25      -1.5440      1.00000
     26      -1.3310      1.00000
     27      -1.2851      1.00000
     28      -1.2466      1.00000
     29      -0.8433      1.00000
     30      -0.7918      1.00000
     31      -0.6327      1.00000
     32      -0.2961      1.00000
     33       0.0586      1.00000
     34       0.5129      1.00000
     35       0.8271      1.00000
     36       0.9812      1.00000
     37       0.9982      1.00000
[...]
     56       5.6589      0.00000
     57       6.0796      0.00000
     58       6.0798      0.00000
     59       6.3892      0.00000
     60       6.3894      0.00000

 k-point   141 :      -0.2000    0.4286    0.5000
  band No.  band energies     occupation 
      1     -46.3577      1.00000
      2     -46.3570      1.00000
      3     -46.2568      1.00000
      4     -46.2562      1.00000
      5     -46.1876      1.00000
      6     -46.1871      1.00000
      7     -43.4914      1.00000
      8     -43.4908      1.00000
      9     -43.4153      1.00000
     10     -43.4151      1.00000
     11     -43.2869      1.00000
     12     -43.2866      1.00000
     13     -14.8351      1.00000
     14     -14.8343      1.00000
     15     -14.0861      1.00000
     16     -14.0839      1.00000
     17     -13.6648      1.00000
     18     -13.6633      1.00000
     19     -13.6150      1.00000
     20     -13.6143      1.00000
     21      -2.2927      1.00000
     22      -2.2910      1.00000
     23      -1.8928      1.00000
     24      -1.8915      1.00000
     25      -1.6944      1.00000
     26      -1.6937      1.00000
     27      -1.5654      1.00000
     28      -1.5649      1.00000
     29      -0.4294      1.00000
     30      -0.4283      1.00000
     31      -0.2626      1.00000
     32      -0.2619      1.00000
     33       0.3085      1.00000
     34       0.3098      1.00000
     35       0.5428      1.00000
     36       0.5435      1.00000
     37       0.8645      1.00000
     38       0.8647      1.00000
     39       1.3109      1.00000
     40       1.3115      1.00000
     41       1.6797      1.00000
     42       1.6803      1.00000
     43       2.1523      1.00000
     44       2.1528      1.00000
     45       2.7113      1.00000
     46       2.7116      1.00000
     47       3.1318      1.00000
     48       3.1328      1.00000
     49       3.5682      1.00000
     50       3.5688      1.00000
     51       5.1525      0.00000
     52       5.1530      0.00000
     53       5.3684      0.00000
     54       5.3685      0.00000
     55       5.8869      0.00000
     56       5.8871      0.00000
     57       6.3324      0.00000
     58       6.3328      0.00000
     59       6.4301      0.00000
     60       6.4303      0.00000

 k-point   142 :      -0.1000    0.4286    0.5000
  band No.  band energies     occupation 
      1     -46.3311      1.00000
      2     -46.3304      1.00000
      3     -46.2603      1.00000
      4     -46.2596      1.00000
      5     -46.1904      1.00000
      6     -46.1899      1.00000
      7     -43.4602      1.00000
      8     -43.4597      1.00000
      9     -43.4191      1.00000
     10     -43.4189      1.00000
     11     -43.2907      1.00000
     12     -43.2904      1.00000
     13     -15.0622      1.00000
     14     -15.0614      1.00000
     15     -14.2243      1.00000
     16     -14.2220      1.00000
     17     -13.6416      1.00000
     18     -13.6401      1.00000
     19     -13.5751      1.00000
     20     -13.5744      1.00000
     21      -2.5845      1.00000
     22      -2.5827      1.00000
     23      -2.0454      1.00000
     24      -2.0439      1.00000
     25      -1.4784      1.00000
     26      -1.4771      1.00000
     27      -1.2675      1.00000
     28      -1.2667      1.00000
     29      -0.6906      1.00000
     30      -0.6893      1.00000
     31       0.0811      1.00000
     32       0.0821      1.00000
     33       0.3886      1.00000
     34       0.3890      1.00000
     35       0.6457      1.00000
     36       0.6462      1.00000
     37       0.9876      1.00000
     38       0.9883      1.00000
     39       1.3858      1.00000
     40       1.3873      1.00000
     41       1.7942      1.00000
     42       1.7948      1.00000
     43       2.3950      1.00000
     44       2.3954      1.00000
     45       2.6890      1.00000
     46       2.6896      1.00000
     47       2.9294      1.00000
     48       2.9304      1.00000
     49       3.6628      1.00000
     50       3.6634      1.00000
     51       5.0179      0.00000
     52       5.0183      0.00000
     53       5.1749      0.00000
     54       5.1752      0.00000
     55       5.9996      0.00000
     56       5.9999      0.00000
     57       6.3620      0.00000
     58       6.3629      0.00000
     59       6.7507      0.00000
     60       6.7514      0.00000


--------------------------------------------------------------------------------------------------------


 soft charge-density along one line, spin component           1
         0         1         2         3         4         5         6         7         8         9
 total charge-density along one line
 
 soft charge-density along one line, spin component           2
         0         1         2         3         4         5         6         7         8         9
 total charge-density along one line
 
 pseudopotential strength for first ion, spin component:           1
-43.658  -0.008   0.000   8.489   0.003  -0.000   0.000  -0.014
 -0.008 -43.730  -0.000   0.003   8.520   0.000   0.000  -0.004
  0.000  -0.000 -43.786  -0.000   0.000   8.544  -0.007   0.000
  8.489   0.003  -0.000   4.981  -0.001   0.000  -0.000   0.007
  0.003   8.520   0.000  -0.001   4.971  -0.000  -0.000   0.003
 -0.000   0.000   8.544   0.000  -0.000   4.963   0.004  -0.000
  0.000   0.000  -0.007  -0.000  -0.000   0.004  -4.087   0.000
 -0.014  -0.004   0.000   0.007   0.003  -0.000   0.000  -4.142
 -0.001  -0.003  -0.000   0.000  -0.003   0.000   0.000   0.169
  0.000   0.000  -0.006  -0.000  -0.000  -0.001  -0.307   0.000
 -0.004   0.004   0.000   0.002  -0.004  -0.000  -0.000  -0.204
  0.000   0.000  -0.007  -0.000  -0.000   0.004  -4.555   0.000
 -0.013  -0.004   0.000   0.007   0.003  -0.000   0.000  -4.609
 -0.001  -0.004  -0.000   0.000  -0.003   0.000   0.000   0.166
  0.000   0.000  -0.006  -0.000  -0.000  -0.001  -0.302   0.000
 -0.004   0.003   0.000   0.002  -0.004  -0.000  -0.000  -0.201
  0.001   0.002  -0.000  -0.001  -0.000   0.000  -0.000   0.002
  0.003   0.005  -0.000  -0.001  -0.000   0.000  -0.000   0.004
 pseudopotential strength for first ion, spin component:           2
-45.623  -0.009   0.000   9.399   0.003  -0.000   0.000  -0.000
 -0.009 -45.659  -0.000   0.003   9.414   0.000   0.000   0.005
  0.000  -0.000 -45.730  -0.000   0.000   9.446   0.002   0.000
  9.399   0.003  -0.000   4.689  -0.001   0.000  -0.000  -0.000
  0.003   9.414   0.000  -0.001   4.684  -0.000  -0.000  -0.002
 -0.000   0.000   9.446   0.000  -0.000   4.676  -0.002  -0.000
  0.000   0.000   0.002  -0.000  -0.000  -0.002  -5.723  -0.000
 -0.000   0.005   0.000  -0.000  -0.002  -0.000  -0.000  -5.620
  0.001  -0.024  -0.000  -0.000   0.010   0.000  -0.000  -0.130
  0.000   0.000  -0.017  -0.000  -0.000   0.006   0.221  -0.000
 -0.001  -0.008   0.000  -0.001   0.003  -0.000   0.000   0.160
  0.000   0.000   0.002  -0.000  -0.000  -0.002  -6.167  -0.000
 -0.000   0.004   0.000  -0.000  -0.002  -0.000  -0.000  -6.065
  0.001  -0.024  -0.000  -0.000   0.010   0.000  -0.000  -0.127
  0.000   0.000  -0.017  -0.000  -0.000   0.006   0.217  -0.000
 -0.001  -0.008   0.000  -0.001   0.003  -0.000   0.000   0.157
 -0.001   0.006  -0.000  -0.000  -0.000   0.000  -0.000   0.001
 -0.002   0.013  -0.000  -0.000  -0.001   0.000  -0.000   0.001
 total augmentation occupancy for first ion, spin component:           1
  1.985  -0.000   0.000  -0.057  -0.000   0.000   0.000   0.010  -0.001   0.000   0.005  -0.000  -0.009   0.001  -0.000  -0.004
 -0.000   1.985  -0.000  -0.000  -0.056  -0.000   0.000  -0.002  -0.013   0.000  -0.009  -0.000   0.002   0.012  -0.000   0.008
  0.000  -0.000   1.986   0.000  -0.000  -0.056   0.006   0.000  -0.000  -0.007   0.000  -0.005  -0.000   0.000   0.007  -0.000
 -0.057  -0.000   0.000   0.238  -0.006  -0.000   0.000   0.118  -0.004   0.000   0.078  -0.000  -0.125   0.001  -0.000  -0.078
 -0.000  -0.056  -0.000  -0.006   0.256   0.000   0.000  -0.058  -0.161   0.000  -0.111  -0.000   0.055   0.168  -0.000   0.119
  0.000  -0.000  -0.056  -0.000   0.000   0.273   0.122   0.000  -0.000  -0.061   0.000  -0.112  -0.000   0.000   0.075  -0.000
  0.000   0.000   0.006   0.000   0.000   0.122   5.857   0.000   0.000  -1.183  -0.000  -5.323  -0.000  -0.000  -0.284  -0.000
  0.010  -0.002   0.000   0.118  -0.058   0.000   0.000   5.141   0.459  -0.000  -0.532  -0.000  -5.121   0.363   0.000  -0.498
 -0.001  -0.013  -0.000  -0.004  -0.161  -0.000   0.000   0.459   6.879  -0.000  -0.051  -0.000   0.381  -5.204   0.000   0.497
  0.000   0.000  -0.007   0.000   0.000  -0.061  -1.183  -0.000  -0.000   5.898  -0.000  -0.299   0.000   0.000  -5.364  -0.000
  0.005  -0.009   0.000   0.078  -0.111   0.000  -0.000  -0.532  -0.051  -0.000   6.844  -0.000  -0.515   0.494  -0.000  -5.368
 -0.000  -0.000  -0.005  -0.000  -0.000  -0.112  -5.323  -0.000  -0.000  -0.299  -0.000   5.811  -0.000   0.000   1.529   0.000
 -0.009   0.002  -0.000  -0.125   0.055  -0.000  -0.000  -5.121   0.381   0.000  -0.515  -0.000   6.023  -1.079  -0.000   1.388
  0.001   0.012   0.000   0.001   0.168   0.000  -0.000   0.363  -5.204   0.000   0.494   0.000  -1.079   4.755  -0.000  -0.845
 -0.000  -0.000   0.007  -0.000  -0.000   0.075  -0.284   0.000   0.000  -5.364  -0.000   1.529  -0.000  -0.000   5.857   0.000
 -0.004   0.008  -0.000  -0.078   0.119  -0.000  -0.000  -0.498   0.497  -0.000  -5.368   0.000   1.388  -0.845   0.000   5.065
  0.002  -0.011  -0.000   0.010   0.020  -0.000   0.000   0.316  -0.006  -0.000  -0.618  -0.000  -0.313   0.008   0.000   0.575
 -0.001   0.006   0.000  -0.001  -0.002   0.000  -0.000  -0.055  -0.004  -0.000   0.123   0.000   0.061   0.001  -0.000  -0.100
 total augmentation occupancy for first ion, spin component:           2
  0.002  -0.000  -0.000   0.007  -0.000  -0.000   0.000   0.003   0.000   0.000   0.001  -0.000  -0.003  -0.000  -0.000  -0.001
 -0.000   0.002   0.000  -0.000   0.007   0.000   0.000   0.003  -0.004   0.000  -0.002  -0.000  -0.003   0.004  -0.000   0.002
 -0.000   0.000   0.002  -0.000   0.000   0.007   0.002   0.000  -0.000  -0.003   0.000  -0.002  -0.000   0.000   0.003  -0.000
  0.007  -0.000  -0.000  -0.011   0.000  -0.000  -0.000  -0.030  -0.018   0.000  -0.008  -0.000   0.017   0.009  -0.000   0.006
 -0.000   0.007   0.000   0.000  -0.009   0.000   0.000   0.000   0.061  -0.000   0.041  -0.000  -0.004  -0.036   0.000  -0.021
 -0.000   0.000   0.007  -0.000   0.000  -0.018  -0.054  -0.000  -0.000   0.019   0.000   0.035  -0.000   0.000  -0.009  -0.000
  0.000   0.000   0.002  -0.000   0.000  -0.054  -2.659  -0.000  -0.000   3.186   0.000   1.305   0.000   0.000  -2.108  -0.000
  0.003   0.003   0.000  -0.030   0.000  -0.000  -0.000  -1.308  -1.750  -0.000   2.148   0.000   0.363   1.161   0.000  -1.426
  0.000  -0.004  -0.000  -0.018   0.061  -0.000  -0.000  -1.750  -5.105   0.000  -0.914   0.000   1.136   2.931  -0.000   0.642
  0.000   0.000  -0.003   0.000  -0.000   0.019   3.186  -0.000   0.000  -2.627   0.000  -2.090   0.000  -0.000   1.281  -0.000
  0.001  -0.002   0.000  -0.008   0.041   0.000   0.000   2.148  -0.914   0.000  -4.642  -0.000  -1.395   0.641  -0.000   2.579
 -0.000  -0.000  -0.002  -0.000  -0.000   0.035   1.305   0.000   0.000  -2.090  -0.000  -0.500  -0.000  -0.000   1.435   0.000
 -0.003  -0.003  -0.000   0.017  -0.004  -0.000   0.000   0.363   1.136   0.000  -1.395  -0.000   0.169  -0.792  -0.000   0.973
 -0.000   0.004   0.000   0.009  -0.036   0.000   0.000   1.161   2.931  -0.000   0.641  -0.000  -0.792  -1.602   0.000  -0.452
 -0.000  -0.000   0.003  -0.000   0.000  -0.009  -2.108   0.000  -0.000   1.281  -0.000   1.435  -0.000   0.000  -0.480   0.000
 -0.001   0.002  -0.000   0.006  -0.021  -0.000  -0.000  -1.426   0.642  -0.000   2.579   0.000   0.973  -0.452   0.000  -1.341
 -0.001   0.002  -0.000  -0.001   0.003  -0.000  -0.000  -0.114   0.039   0.000   0.140   0.000   0.065  -0.034  -0.000  -0.066
  0.000  -0.001   0.000  -0.001  -0.000   0.000  -0.000   0.010   0.003   0.000  -0.038   0.000  -0.007   0.003  -0.000   0.015


------------------------ aborting loop because EDIFF is reached ----------------------------------------


    CHARGE:  cpu time    0.5166: real time    0.5167
    FORLOC:  cpu time    0.0013: real time    0.0013
    FORNL :  cpu time    2.7118: real time    2.7121
    STRESS:  cpu time    2.9473: real time    2.9475
    FORCOR:  cpu time    0.0300: real time    0.0300
    FORHAR:  cpu time    0.0041: real time    0.0041
    MIXING:  cpu time    0.0011: real time    0.0011
    OFIELD:  cpu time    0.0001: real time    0.0001

  FORCE on cell =-STRESS in cart. coord.  units (eV):
  Direction    XX          YY          ZZ          XY          YZ          ZX
  --------------------------------------------------------------------------------------
  Alpha Z   453.83611   453.83611   453.83611
  Ewald   -1214.40323 -4054.01136 -2234.51580    -0.02593     0.74069     0.00382
  Hartree  2071.90593   123.46630  1402.47517    -0.01574     0.44068     0.00182
  E(xc)    -548.24881  -549.68171  -548.86696    -0.00002     0.00069     0.00001
  Local   -2474.07046  2266.03239  -808.34298     0.04097    -1.16730    -0.00557
  n-local  -314.87141  -322.27076  -318.94061    -0.00012     0.00588     0.00005
  augment   449.42537   459.87890   455.15077     0.00013    -0.00232     0.00001
  Kinetic  1576.58656  1622.85099  1599.12868     0.00112     0.00434    -0.00026
  Fock        0.00000     0.00000     0.00000     0.00000     0.00000     0.00000
  -------------------------------------------------------------------------------------
  Total       0.16007     0.10086    -0.07563     0.00042     0.02266    -0.00012
  in kB       2.09218     1.31835    -0.98847     0.00545     0.29620    -0.00163
  external pressure =        0.81 kB  Pullay stress =        0.00 kB


 VOLUME and BASIS-vectors are now :
 -----------------------------------------------------------------------------
  energy-cutoff  :      520.00
  volume of cell :      122.58
      direct lattice vectors                 reciprocal lattice vectors
     2.869097446 -0.000019175  0.000000990     0.348541665  0.000002664 -0.000000514
    -0.000035203  4.604828031 -0.000199220     0.000001451  0.217163376  0.000009959
     0.000013683 -0.000425507  9.278097277    -0.000000037  0.000004663  0.107780720

  length of vectors
     2.869097446  4.604828036  9.278097287     0.348541665  0.217163376  0.107780720


 FORCES acting on ions
    electron-ion (+dipol)            ewald-force                    non-local-force                 convergence-correction
 -----------------------------------------------------------------------------------------------
   -.677E-02 -.255E+02 0.125E+03   0.662E-02 0.257E+02 -.126E+03   0.209E-03 -.281E+00 0.811E+00   0.214E-05 -.129E-02 -.192E-03
   0.454E-02 0.254E+02 -.125E+03   -.444E-02 -.257E+02 0.126E+03   -.132E-03 0.281E+00 -.811E+00   -.126E-05 0.127E-02 0.381E-03
   -.638E-02 -.254E+02 -.125E+03   0.619E-02 0.256E+02 0.126E+03   0.188E-03 -.279E+00 -.810E+00   -.786E-06 -.110E-02 0.736E-03
   0.798E-02 0.254E+02 0.125E+03   -.775E-02 -.256E+02 -.126E+03   -.239E-03 0.279E+00 0.810E+00   -.194E-05 0.106E-02 -.272E-03
   0.103E-03 -.358E+03 0.470E+02   -.396E-04 0.383E+03 -.506E+02   -.172E-03 -.246E+02 0.360E+01   0.818E-06 -.100E-02 0.751E-03
   0.116E-02 -.358E+03 -.470E+02   -.132E-02 0.383E+03 0.506E+02   0.120E-03 -.247E+02 -.359E+01   -.753E-06 -.657E-03 0.654E-03
   0.188E-03 0.358E+03 0.471E+02   -.142E-03 -.383E+03 -.506E+02   -.607E-04 0.247E+02 0.359E+01   0.559E-06 0.835E-03 0.459E-03
   -.852E-03 0.358E+03 -.471E+02   0.852E-03 -.383E+03 0.507E+02   0.140E-03 0.246E+02 -.360E+01   -.984E-06 0.802E-03 0.562E-03
   -.340E-02 -.685E+02 -.386E+02   0.391E-02 0.728E+02 0.394E+02   -.546E-03 -.430E+01 -.781E+00   0.420E-06 -.791E-03 -.803E-03
   0.312E-02 0.686E+02 -.386E+02   -.356E-02 -.729E+02 0.393E+02   0.477E-03 0.430E+01 -.779E+00   0.414E-06 0.110E-02 -.107E-02
   -.328E-02 -.686E+02 0.386E+02   0.372E-02 0.729E+02 -.394E+02   -.444E-03 -.430E+01 0.779E+00   -.383E-06 0.253E-05 0.121E-04
   0.352E-02 0.685E+02 0.386E+02   -.403E-02 -.728E+02 -.394E+02   0.538E-03 0.430E+01 0.778E+00   -.621E-07 -.298E-03 -.264E-03
 -----------------------------------------------------------------------------------------------
   -.780E-04 -.202E-02 0.147E-02   -.464E-13 0.142E-12 0.192E-12   0.797E-04 0.215E-02 -.257E-02   -.182E-05 -.643E-04 0.953E-03
 
 
 POSITION                                       TOTAL-FORCE (eV/Angst)
 -----------------------------------------------------------------------------------
      0.71728      0.14583      8.01640         0.000064     -0.010210      0.002550
      2.15180      4.45856      1.26148        -0.000032      0.010047     -0.001148
      2.15181      2.44861      5.90073        -0.000003     -0.018247     -0.004266
      0.71726      2.15579      3.37717        -0.000011      0.018038      0.003075
      0.71728      3.26813      4.95086        -0.000108      0.007157      0.014889
      2.15184      0.96566      8.96589        -0.000043      0.004552     -0.010268
      0.71724      3.63872      0.31205        -0.000014     -0.004467      0.009161
      2.15179      1.33627      4.32698         0.000139     -0.007095     -0.013698
      0.71728      0.81192      2.05941        -0.000042      0.013934      0.015835
      0.71726      1.49002      6.69846         0.000033     -0.012528      0.015921
      2.15181      3.11437      2.57943        -0.000006      0.012368     -0.015870
      2.15179      3.79242      7.21854         0.000024     -0.013549     -0.016180
 -----------------------------------------------------------------------------------
    total drift:                               -0.000000      0.000068     -0.000152


--------------------------------------------------------------------------------------------------------



  FREE ENERGIE OF THE ION-ELECTRON SYSTEM (eV)
  ---------------------------------------------------
  free  energy   TOTEN  =       -95.97718414 eV

  energy  without entropy=      -95.97718414  energy(sigma->0) =      -95.97718414
 


--------------------------------------------------------------------------------------------------------


    POTLOK:  cpu time    0.3338: real time    0.3338


--------------------------------------------------------------------------------------------------------


 stress matrix after NEB project (eV)
      0.16007      0.00042     -0.00012
      0.00042      0.10086      0.02266
     -0.00012      0.02266     -0.07563
  FORCES: max atom, RMS     0.021104    0.016697
  FORCE total and by dimension    0.057840    0.018247
  Stress total and by dimension    0.206258    0.160069
 writing wavefunctions
     LOOP+:  cpu time   44.6728: real time   45.4435
    4ORBIT:  cpu time    0.0000: real time    0.0000

 total amount of memory used by VASP MPI-rank0   129471. kBytes
=======================================================================

   base      :      30000. kBytes
   nonl-proj :      34513. kBytes
   fftplans  :       1491. kBytes
   grid      :       3666. kBytes
   one-center:         93. kBytes
   wavefun   :      59708. kBytes
 
  
  
 General timing and accounting informations for this job:
 ========================================================
  
                  Total CPU time used (sec):       54.034
                            User time (sec):       50.000
                          System time (sec):        4.035
                         Elapsed time (sec):       55.320
  
                   Maximum memory used (kb):      162456.
                   Average memory used (kb):           0.
  
                          Minor page faults:        59553
                          Major page faults:            0
                 Voluntary context switches:          489
