<?xml version="1.0" encoding="ISO-8859-1"?>
<modeling>
 <generator>
  <i name="program" type="string">vasp </i>
  <i name="version" type="string">5.4.4.18Apr17-6-g9f103f2a35  </i>
  <i name="subversion" type="string">(build Nov 08 2022 17:27:33) complex            parallel </i>
  <i name="platform" type="string">LinuxIFC </i>
  <i name="date" type="string">2022 11 22 </i>
  <i name="time" type="string">19:52:03 </i>
 </generator>
 <incar>
  <i type="string" name="PREC">accurate</i>
  <i type="string" name="ALGO"> Fast</i>
  <i type="int" name="ISPIN">     2</i>
  <i type="int" name="ICHARG">     0</i>
  <i type="int" name="NELM">   100</i>
  <i type="int" name="IBRION">     2</i>
  <i name="EDIFF">      0.00000100</i>
  <i name="EDIFFG">     -0.03000000</i>
  <i type="int" name="NSW">     0</i>
  <i type="int" name="ISIF">     3</i>
  <i type="int" name="ISYM">     0</i>
  <i name="ENCUT">    520.00000000</i>
  <i name="ENAUG">   1040.00000000</i>
  <v name="MAGMOM">     -5.00000000      5.00000000      5.00000000     -5.00000000      0.00000000      0.00000000      0.00000000      0.00000000      0.00000000      0.00000000      0.00000000      0.00000000</v>
  <i type="logical" name="LREAL"> F  </i>
  <i type="int" name="ISMEAR">     0</i>
  <i name="SIGMA">      0.01000000</i>
  <i name="KSPACING">      0.22000000</i>
  <i type="int" name="LMAXMIX">     4</i>
  <i type="logical" name="LWAVE"> T  </i>
  <i type="logical" name="LCHARG"> T  </i>
  <i type="logical" name="LVHAR"> T  </i>
  <i type="int" name="LORBIT">     0</i>
  <i type="logical" name="LASPH"> T  </i>
  <i type="logical" name="LAECHG"> T  </i>
  <v type="int" name="KPOINT_BSE">    -1     0     0     0</v>
  <i type="int" name="NELM">   100</i>
  <i type="string" name="GGA"> Pe</i>
  <i type="logical" name="LASPH"> T  </i>
 </incar>
 <structure name="primitive_cell" >
  <crystal>
   <varray name="basis" >
    <v>       2.86909745      -0.00001917       0.00000099 </v>
    <v>      -0.00003520       4.60482803      -0.00019922 </v>
    <v>       0.00001368      -0.00042551       9.27809728 </v>
   </varray>
   <i name="volume">    122.57944074 </i>
   <varray name="rec_basis" >
    <v>       0.34854166       0.00000266      -0.00000051 </v>
    <v>       0.00000145       0.21716338       0.00000996 </v>
    <v>      -0.00000004       0.00000466       0.10778072 </v>
   </varray>
  </crystal>
  <varray name="positions" >
   <v>       0.24999847       0.03174946      -0.13598643 </v>
   <v>       0.24999595       0.32364569      -0.27802851 </v>
   <v>      -0.25000351      -0.17635062      -0.22196269 </v>
   <v>      -0.24999465       0.20979862      -0.03364506 </v>
   <v>       0.24999754      -0.20979900       0.03364980 </v>
   <v>      -0.24999767      -0.03174769       0.13598395 </v>
   <v>       0.25000476       0.17634097       0.22196871 </v>
   <v>       0.25000705      -0.29023128      -0.46637789 </v>
   <v>      -0.25000016      -0.46818923      -0.36400320 </v>
   <v>      -0.25000929       0.29023415       0.46637136 </v>
   <v>      -0.24999753      -0.32364366       0.27802710 </v>
   <v>       0.24999904       0.46819357       0.36400388 </v>
  </varray>
 </structure>
 <varray name="primitive_index" >
  <v type="int" >        1 </v>
  <v type="int" >       10 </v>
  <v type="int" >       12 </v>
  <v type="int" >        6 </v>
  <v type="int" >        7 </v>
  <v type="int" >        2 </v>
  <v type="int" >        9 </v>
  <v type="int" >        5 </v>
  <v type="int" >        3 </v>
  <v type="int" >        8 </v>
  <v type="int" >       11 </v>
  <v type="int" >        4 </v>
 </varray>
 <kpoints>
  <generation param="Gamma">
   <v type="int" name="divisions">      10        7        4 </v>
   <v name="usershift">      0.00000000       0.00000000       0.00000000 </v>
   <v name="genvec1">      0.10000000       0.00000000       0.00000000 </v>
   <v name="genvec2">      0.00000000       0.14285714       0.00000000 </v>
   <v name="genvec3">     -0.00000000       0.00000000       0.25000000 </v>
   <v name="shift">      0.00000000       0.00000000       0.00000000 </v>
  </generation>
  <varray name="kpointlist" >
   <v>       0.00000000       0.00000000       0.00000000 </v>
   <v>       0.10000000      -0.00000000       0.00000000 </v>
   <v>       0.20000000       0.00000000       0.00000000 </v>
   <v>       0.30000000      -0.00000000       0.00000000 </v>
   <v>       0.40000000       0.00000000       0.00000000 </v>
   <v>       0.50000000      -0.00000000      -0.00000000 </v>
   <v>       0.00000000       0.14285714       0.00000000 </v>
   <v>       0.10000000       0.14285714       0.00000000 </v>
   <v>       0.20000000       0.14285714       0.00000000 </v>
   <v>       0.30000000       0.14285714       0.00000000 </v>
   <v>       0.40000000       0.14285714      -0.00000000 </v>
   <v>       0.50000000       0.14285714       0.00000000 </v>
   <v>      -0.40000000       0.14285714       0.00000000 </v>
   <v>      -0.30000000       0.14285714       0.00000000 </v>
   <v>      -0.20000000       0.14285714      -0.00000000 </v>
   <v>      -0.10000000       0.14285714      -0.00000000 </v>
   <v>       0.00000000       0.28571429      -0.00000000 </v>
   <v>       0.10000000       0.28571429      -0.00000000 </v>
   <v>       0.20000000       0.28571429       0.00000000 </v>
   <v>       0.30000000       0.28571429      -0.00000000 </v>
   <v>       0.40000000       0.28571429       0.00000000 </v>
   <v>       0.50000000       0.28571429      -0.00000000 </v>
   <v>      -0.40000000       0.28571429      -0.00000000 </v>
   <v>      -0.30000000       0.28571429       0.00000000 </v>
   <v>      -0.20000000       0.28571429      -0.00000000 </v>
   <v>      -0.10000000       0.28571429       0.00000000 </v>
   <v>       0.00000000       0.42857143      -0.00000000 </v>
   <v>       0.10000000       0.42857143       0.00000000 </v>
   <v>       0.20000000       0.42857143       0.00000000 </v>
   <v>       0.30000000       0.42857143       0.00000000 </v>
   <v>       0.40000000       0.42857143       0.00000000 </v>
   <v>       0.50000000       0.42857143       0.00000000 </v>
   <v>      -0.40000000       0.42857143       0.00000000 </v>
   <v>      -0.30000000       0.42857143      -0.00000000 </v>
   <v>      -0.20000000       0.42857143       0.00000000 </v>
   <v>      -0.10000000       0.42857143       0.00000000 </v>
   <v>      -0.00000000       0.00000000       0.25000000 </v>
   <v>       0.10000000      -0.00000000       0.25000000 </v>
   <v>       0.20000000       0.00000000       0.25000000 </v>
   <v>       0.30000000       0.00000000       0.25000000 </v>
   <v>       0.40000000       0.00000000       0.25000000 </v>
   <v>       0.50000000       0.00000000       0.25000000 </v>
   <v>      -0.40000000       0.00000000       0.25000000 </v>
   <v>      -0.30000000       0.00000000       0.25000000 </v>
   <v>      -0.20000000       0.00000000       0.25000000 </v>
   <v>      -0.10000000       0.00000000       0.25000000 </v>
   <v>       0.00000000       0.14285714       0.25000000 </v>
   <v>       0.10000000       0.14285714       0.25000000 </v>
   <v>       0.20000000       0.14285714       0.25000000 </v>
   <v>       0.30000000       0.14285714       0.25000000 </v>
   <v>       0.40000000       0.14285714       0.25000000 </v>
   <v>       0.50000000       0.14285714       0.25000000 </v>
   <v>      -0.40000000       0.14285714       0.25000000 </v>
   <v>      -0.30000000       0.14285714       0.25000000 </v>
   <v>      -0.20000000       0.14285714       0.25000000 </v>
   <v>      -0.10000000       0.14285714       0.25000000 </v>
   <v>       0.00000000       0.28571429       0.25000000 </v>
   <v>       0.10000000       0.28571429       0.25000000 </v>
   <v>       0.20000000       0.28571429       0.25000000 </v>
   <v>       0.30000000       0.28571429       0.25000000 </v>
   <v>       0.40000000       0.28571429       0.25000000 </v>
   <v>       0.50000000       0.28571429       0.25000000 </v>
   <v>      -0.40000000       0.28571429       0.25000000 </v>
   <v>      -0.30000000       0.28571429       0.25000000 </v>
   <v>      -0.20000000       0.28571429       0.25000000 </v>
   <v>      -0.10000000       0.28571429       0.25000000 </v>
   <v>       0.00000000       0.42857143       0.25000000 </v>
   <v>       0.10000000       0.42857143       0.25000000 </v>
   <v>       0.20000000       0.42857143       0.25000000 </v>
   <v>       0.30000000       0.42857143       0.25000000 </v>
   <v>       0.40000000       0.42857143       0.25000000 </v>
   <v>       0.50000000       0.42857143       0.25000000 </v>
   <v>      -0.40000000       0.42857143       0.25000000 </v>
   <v>      -0.30000000       0.42857143       0.25000000 </v>
   <v>      -0.20000000       0.42857143       0.25000000 </v>
   <v>      -0.10000000       0.42857143       0.25000000 </v>
   <v>       0.00000000      -0.42857143       0.25000000 </v>
   <v>       0.10000000      -0.42857143       0.25000000 </v>
   <v>       0.20000000      -0.42857143       0.25000000 </v>
   <v>       0.30000000      -0.42857143       0.25000000 </v>
   <v>       0.40000000      -0.42857143       0.25000000 </v>
   <v>       0.50000000      -0.42857143       0.25000000 </v>
   <v>      -0.40000000      -0.42857143       0.25000000 </v>
   <v>      -0.30000000      -0.42857143       0.25000000 </v>
   <v>      -0.20000000      -0.42857143       0.25000000 </v>
   <v>      -0.10000000      -0.42857143       0.25000000 </v>
   <v>      -0.00000000      -0.28571429       0.25000000 </v>
   <v>       0.10000000      -0.28571429       0.25000000 </v>
   <v>       0.20000000      -0.28571429       0.25000000 </v>
   <v>       0.30000000      -0.28571429       0.25000000 </v>
   <v>       0.40000000      -0.28571429       0.25000000 </v>
   <v>       0.50000000      -0.28571429       0.25000000 </v>
   <v>      -0.40000000      -0.28571429       0.25000000 </v>
   <v>      -0.30000000      -0.28571429       0.25000000 </v>
   <v>      -0.20000000      -0.28571429       0.25000000 </v>
   <v>      -0.10000000      -0.28571429       0.25000000 </v>
   <v>      -0.00000000      -0.14285714       0.25000000 </v>
   <v>       0.10000000      -0.14285714       0.25000000 </v>
   <v>       0.20000000      -0.14285714       0.25000000 </v>
   <v>       0.30000000      -0.14285714       0.25000000 </v>
   <v>       0.40000000      -0.14285714       0.25000000 </v>
   <v>       0.50000000      -0.14285714       0.25000000 </v>
   <v>      -0.40000000      -0.14285714       0.25000000 </v>
   <v>      -0.30000000      -0.14285714       0.25000000 </v>
   <v>      -0.20000000      -0.14285714       0.25000000 </v>
   <v>      -0.10000000      -0.14285714       0.25000000 </v>
   <v>      -0.00000000       0.00000000       0.50000000 </v>
   <v>       0.10000000       0.00000000       0.50000000 </v>
   <v>       0.20000000      -0.00000000       0.50000000 </v>
   <v>       0.30000000       0.00000000       0.50000000 </v>
   <v>       0.40000000       0.00000000       0.50000000 </v>
   <v>       0.50000000       0.00000000       0.50000000 </v>
   <v>      -0.00000000       0.14285714       0.50000000 </v>
   <v>       0.10000000       0.14285714       0.50000000 </v>
   <v>       0.20000000       0.14285714       0.50000000 </v>
   <v>       0.30000000       0.14285714       0.50000000 </v>
   <v>       0.40000000       0.14285714       0.50000000 </v>
   <v>       0.50000000       0.14285714       0.50000000 </v>
   <v>      -0.40000000       0.14285714       0.50000000 </v>
   <v>      -0.30000000       0.14285714       0.50000000 </v>
   <v>      -0.20000000       0.14285714       0.50000000 </v>
   <v>      -0.10000000       0.14285714       0.50000000 </v>
   <v>       0.00000000       0.28571429       0.50000000 </v>
   <v>       0.10000000       0.28571429       0.50000000 </v>
   <v>       0.20000000       0.28571429       0.50000000 </v>
   <v>       0.30000000       0.28571429       0.50000000 </v>
   <v>       0.40000000       0.28571429       0.50000000 </v>
   <v>       0.50000000       0.28571429       0.50000000 </v>
   <v>      -0.40000000       0.28571429       0.50000000 </v>
   <v>      -0.30000000       0.28571429       0.50000000 </v>
   <v>      -0.20000000       0.28571429       0.50000000 </v>
   <v>      -0.10000000       0.28571429       0.50000000 </v>
   <v>       0.00000000       0.42857143       0.50000000 </v>
   <v>       0.10000000       0.42857143       0.50000000 </v>
   <v>       0.20000000       0.42857143       0.50000000 </v>
   <v>       0.30000000       0.42857143       0.50000000 </v>
   <v>       0.40000000       0.42857143       0.50000000 </v>
   <v>       0.50000000       0.42857143       0.50000000 </v>
   <v>      -0.40000000       0.42857143       0.50000000 </v>
   <v>      -0.30000000       0.42857143       0.50000000 </v>
   <v>      -0.20000000       0.42857143       0.50000000 </v>
   <v>      -0.10000000       0.42857143       0.50000000 </v>
  </varray>
  <varray name="weights" >
   <v>       0.00357143 </v>
   <v>       0.00714286 </v>
   <v>       0.00714286 </v>
   <v>       0.00714286 </v>
   <v>       0.00714286 </v>
   <v>       0.00357143 </v>
   <v>       0.00714286 </v>
   <v>       0.00714286 </v>
   <v>       0.00714286 </v>
   <v>       0.00714286 </v>
   <v>       0.00714286 </v>
   <v>       0.00714286 </v>
   <v>       0.00714286 </v>
   <v>       0.00714286 </v>
   <v>       0.00714286 </v>
   <v>       0.00714286 </v>
   <v>       0.00714286 </v>
   <v>       0.00714286 </v>
   <v>       0.00714286 </v>
   <v>       0.00714286 </v>
   <v>       0.00714286 </v>
   <v>       0.00714286 </v>
   <v>       0.00714286 </v>
   <v>       0.00714286 </v>
   <v>       0.00714286 </v>
   <v>       0.00714286 </v>
   <v>       0.00714286 </v>
   <v>       0.00714286 </v>
   <v>       0.00714286 </v>
   <v>       0.00714286 </v>
   <v>       0.00714286 </v>
   <v>       0.00714286 </v>
   <v>       0.00714286 </v>
   <v>       0.00714286 </v>
   <v>       0.00714286 </v>
   <v>       0.00714286 </v>
   <v>       0.00714286 </v>
   <v>       0.00714286 </v>
   <v>       0.00714286 </v>
   <v>       0.00714286 </v>
   <v>       0.00714286 </v>
   <v>       0.00714286 </v>
   <v>       0.00714286 </v>
   <v>       0.00714286 </v>
   <v>       0.00714286 </v>
   <v>       0.00714286 </v>
   <v>       0.00714286 </v>
   <v>       0.00714286 </v>
   <v>       0.00714286 </v>
   <v>       0.00714286 </v>
   <v>       0.00714286 </v>
   <v>       0.00714286 </v>
   <v>       0.00714286 </v>
   <v>       0.00714286 </v>
   <v>       0.00714286 </v>
   <v>       0.00714286 </v>
   <v>       0.00714286 </v>
   <v>       0.00714286 </v>
   <v>       0.00714286 </v>
   <v>       0.00714286 </v>
   <v>       0.00714286 </v>
   <v>       0.00714286 </v>
   <v>       0.00714286 </v>
   <v>       0.00714286 </v>
   <v>       0.00714286 </v>
   <v>       0.00714286 </v>
   <v>       0.00714286 </v>
   <v>       0.00714286 </v>
   <v>       0.00714286 </v>
   <v>       0.00714286 </v>
   <v>       0.00714286 </v>
   <v>       0.00714286 </v>
   <v>       0.00714286 </v>
   <v>       0.00714286 </v>
   <v>       0.00714286 </v>
   <v>       0.00714286 </v>
   <v>       0.00714286 </v>
   <v>       0.00714286 </v>
   <v>       0.00714286 </v>
   <v>       0.00714286 </v>
   <v>       0.00714286 </v>
   <v>       0.00714286 </v>
   <v>       0.00714286 </v>
   <v>       0.00714286 </v>
   <v>       0.00714286 </v>
   <v>       0.00714286 </v>
   <v>       0.00714286 </v>
   <v>       0.00714286 </v>
   <v>       0.00714286 </v>
   <v>       0.00714286 </v>
   <v>       0.00714286 </v>
   <v>       0.00714286 </v>
   <v>       0.00714286 </v>
   <v>       0.00714286 </v>
   <v>       0.00714286 </v>
   <v>       0.00714286 </v>
   <v>       0.00714286 </v>
   <v>       0.00714286 </v>
   <v>       0.00714286 </v>
   <v>       0.00714286 </v>
   <v>       0.00714286 </v>
   <v>       0.00714286 </v>
   <v>       0.00714286 </v>
   <v>       0.00714286 </v>
   <v>       0.00714286 </v>
   <v>       0.00714286 </v>
   <v>       0.00357143 </v>
   <v>       0.00714286 </v>
   <v>       0.00714286 </v>
   <v>       0.00714286 </v>
   <v>       0.00714286 </v>
   <v>       0.00357143 </v>
   <v>       0.00714286 </v>
   <v>       0.00714286 </v>
   <v>       0.00714286 </v>
   <v>       0.00714286 </v>
   <v>       0.00714286 </v>
   <v>       0.00714286 </v>
   <v>       0.00714286 </v>
   <v>       0.00714286 </v>
   <v>       0.00714286 </v>
   <v>       0.00714286 </v>
   <v>       0.00714286 </v>
   <v>       0.00714286 </v>
   <v>       0.00714286 </v>
   <v>       0.00714286 </v>
   <v>       0.00714286 </v>
   <v>       0.00714286 </v>
   <v>       0.00714286 </v>
   <v>       0.00714286 </v>
   <v>       0.00714286 </v>
   <v>       0.00714286 </v>
   <v>       0.00714286 </v>
   <v>       0.00714286 </v>
   <v>       0.00714286 </v>
   <v>       0.00714286 </v>
   <v>       0.00714286 </v>
   <v>       0.00714286 </v>
   <v>       0.00714286 </v>
   <v>       0.00714286 </v>
   <v>       0.00714286 </v>
   <v>       0.00714286 </v>
  </varray>
 </kpoints>
 <parameters>
  <separator name="general" >
   <i type="string" name="SYSTEM">unknown system</i>
   <i type="logical" name="LCOMPAT"> F  </i>
  </separator>
  <separator name="electronic" >
   <i type="string" name="PREC">accura</i>
   <i name="ENMAX">    520.00000000</i>
   <i name="ENAUG">   1040.00000000</i>
   <i name="EDIFF">      0.00000100</i>
   <i type="int" name="IALGO">    68</i>
   <i type="int" name="IWAVPR">    10</i>
   <i type="int" name="NBANDS">    60</i>
   <i name="NELECT">    100.00000000</i>
   <i type="int" name="TURBO">     0</i>
   <i type="int" name="IRESTART">     0</i>
   <i type="int" name="NREBOOT">     0</i>
   <i type="int" name="NMIN">     0</i>
   <i name="EREF">      0.00000000</i>
   <separator name="electronic smearing" >
    <i type="int" name="ISMEAR">     0</i>
    <i name="SIGMA">      0.01000000</i>
    <i name="KSPACING">      0.22000000</i>
    <i type="logical" name="KGAMMA"> T  </i>
   </separator>
   <separator name="electronic projectors" >
    <i type="logical" name="LREAL"> F  </i>
    <v name="ROPT">      0.00000000      0.00000000</v>
    <i type="int" name="LMAXPAW">  -100</i>
    <i type="int" name="LMAXMIX">     4</i>
    <i type="logical" name="NLSPLINE"> F  </i>
   </separator>
   <separator name="electronic startup" >
    <i type="int" name="ISTART">     1</i>
    <i type="int" name="ICHARG">     0</i>
    <i type="int" name="INIWAV">     1</i>
   </separator>
   <separator name="electronic spin" >
    <i type="int" name="ISPIN">     2</i>
    <i type="logical" name="LNONCOLLINEAR"> F  </i>
    <v name="MAGMOM">     -5.00000000      5.00000000      5.00000000     -5.00000000      0.00000000      0.00000000      0.00000000      0.00000000      0.00000000      0.00000000      0.00000000      0.00000000</v>
    <i name="NUPDOWN">     -1.00000000</i>
    <i type="logical" name="LSORBIT"> F  </i>
    <v name="SAXIS">      0.00000000      0.00000000      1.00000000</v>
    <i type="logical" name="LSPIRAL"> F  </i>
    <v name="QSPIRAL">      0.00000000      0.00000000      0.00000000</v>
    <i type="logical" name="LZEROZ"> F  </i>
   </separator>
   <separator name="electronic exchange-correlation" >
    <i type="logical" name="LASPH"> T  </i>
    <i type="logical" name="LMETAGGA"> F  </i>
   </separator>
   <separator name="electronic convergence" >
    <i type="int" name="NELM">   100</i>
    <i type="int" name="NELMDL">     0</i>
    <i type="int" name="NELMIN">     2</i>
    <i name="ENINI">    520.00000000</i>
    <separator name="electronic convergence detail" >
     <i type="logical" name="LDIAG"> T  </i>
     <i type="logical" name="LSUBROT"> F  </i>
     <i name="WEIMIN">      0.00000000</i>
     <i name="EBREAK">      0.00000000</i>
     <i name="DEPER">      0.30000000</i>
     <i type="int" name="NRMM">     4</i>
     <i name="TIME">      0.40000000</i>
    </separator>
   </separator>
   <separator name="electronic mixer" >
    <i name="AMIX">      0.40000000</i>
    <i name="BMIX">      1.00000000</i>
    <i name="AMIN">      0.10000000</i>
    <i name="AMIX_MAG">      1.60000000</i>
    <i name="BMIX_MAG">      1.00000000</i>
    <separator name="electronic mixer details" >
     <i type="int" name="IMIX">     4</i>
     <i type="logical" name="MIXFIRST"> F  </i>
     <i type="int" name="MAXMIX">   -45</i>
     <i name="WC">    100.00000000</i>
     <i type="int" name="INIMIX">     1</i>
     <i type="int" name="MIXPRE">     1</i>
     <i type="int" name="MREMOVE">     5</i>
    </separator>
   </separator>
   <separator name="electronic dipolcorrection" >
    <i type="logical" name="LDIPOL"> F  </i>
    <i type="logical" name="LMONO"> F  </i>
    <i type="int" name="IDIPOL">     0</i>
    <i name="EPSILON">      1.00000000</i>
    <v name="DIPOL">   -100.00000000   -100.00000000   -100.00000000</v>
    <i name="EFIELD">      0.00000000</i>
   </separator>
  </separator>
  <separator name="grids" >
   <i type="int" name="NGX">    24</i>
   <i type="int" name="NGY">    36</i>
   <i type="int" name="NGZ">    70</i>
   <i type="int" name="NGXF">    48</i>
   <i type="int" name="NGYF">    72</i>
   <i type="int" name="NGZF">   140</i>
   <i type="logical" name="ADDGRID"> F  </i>
  </separator>
  <separator name="ionic" >
   <i type="int" name="NSW">     0</i>
   <i type="int" name="IBRION">    -1</i>
   <i type="int" name="MDALGO">     0</i>
   <i type="int" name="ISIF">     3</i>
   <i name="PSTRESS">      0.00000000</i>
   <i name="EDIFFG">     -0.03000000</i>
   <i type="int" name="NFREE">     1</i>
   <i name="POTIM">      0.50000000</i>
   <i name="SMASS">     -3.00000000</i>
   <i name="SCALEE">      1.00000000</i>
  </separator>
  <separator name="ionic md" >
   <i name="TEBEG">      0.00010000</i>
   <i name="TEEND">      0.00010000</i>
   <i type="int" name="NBLOCK">     1</i>
   <i type="int" name="KBLOCK">     1</i>
   <i type="int" name="NPACO">   256</i>
   <i name="APACO">     16.00000000</i>
  </separator>
  <separator name="symmetry" >
   <i type="int" name="ISYM">     0</i>
   <i name="SYMPREC">      0.00001000</i>
  </separator>
  <separator name="dos" >
   <i type="int" name="LORBIT">     0</i>
   <v name="RWIGS">     -1.00000000     -1.00000000</v>
   <i type="int" name="NEDOS">   301</i>
   <i name="EMIN">     10.00000000</i>
   <i name="EMAX">    -10.00000000</i>
   <i name="EFERMI">      0.00000000</i>
  </separator>
  <separator name="writing" >
   <i type="int" name="NWRITE">     2</i>
   <i type="logical" name="LWAVE"> T  </i>
   <i type="logical" name="LDOWNSAMPLE"> F  </i>
   <i type="logical" name="LCHARG"> T  </i>
   <i type="logical" name="LPARD"> F  </i>
   <i type="logical" name="LVTOT"> F  </i>
   <i type="logical" name="LVHAR"> T  </i>
   <i type="logical" name="LELF"> F  </i>
   <i type="logical" name="LOPTICS"> F  </i>
   <v name="STM">      0.00000000      0.00000000      0.00000000      0.00000000      0.00000000      0.00000000      0.00000000</v>
  </separator>
  <separator name="performance" >
   <i type="int" name="NPAR">     4</i>
   <i type="int" name="NSIM">     4</i>
   <i type="int" name="NBLK">    -1</i>
   <i type="logical" name="LPLANE"> T  </i>
   <i type="logical" name="LSCALAPACK"> T  </i>
   <i type="logical" name="LSCAAWARE"> F  </i>
   <i type="logical" name="LSCALU"> F  </i>
   <i type="logical" name="LASYNC"> F  </i>
   <i type="logical" name="LORBITALREAL"> F  </i>
  </separator>
  <separator name="miscellaneous" >
   <i type="int" name="IDIOT">     3</i>
   <i type="int" name="ISPECIAL">     0</i>
   <i type="logical" name="LMUSIC"> F  </i>
   <v name="POMASS">     54.93800000     16.00000000</v>
   <v name="DARWINR">      0.00000000      0.00000000</v>
   <v name="DARWINV">      1.00000000      1.00000000</v>
   <i type="logical" name="LCORR"> T  </i>
  </separator>
  <i type="logical" name="GGA_COMPAT"> T  </i>
  <i type="logical" name="LBERRY"> F  </i>
  <i type="int" name="ICORELEVEL">     0</i>
  <i type="logical" name="LDAU"> F  </i>
  <i type="int" name="I_CONSTRAINED_M">     0</i>
  <separator name="electronic exchange-correlation" >
   <i type="string" name="GGA">PE</i>
   <i type="int" name="VOSKOWN">     0</i>
   <i type="logical" name="LHFCALC"> F  </i>
   <i type="string" name="PRECFOCK"></i>
   <i type="logical" name="LSYMGRAD"> F  </i>
   <i type="logical" name="LHFONE"> F  </i>
   <i type="logical" name="LRHFCALC"> F  </i>
   <i type="logical" name="LTHOMAS"> F  </i>
   <i type="logical" name="LMODELHF"> F  </i>
   <i name="ENCUT4O">     -1.00000000</i>
   <i type="int" name="EXXOEP">     0</i>
   <i type="int" name="FOURORBIT">     0</i>
   <i name="AEXX">      0.00000000</i>
   <i name="HFALPHA">      0.00000000</i>
   <i name="MCALPHA">      0.00000000</i>
   <i name="ALDAX">      1.00000000</i>
   <i name="AGGAX">      1.00000000</i>
   <i name="ALDAC">      1.00000000</i>
   <i name="AGGAC">      1.00000000</i>
   <i type="int" name="NKREDX">     1</i>
   <i type="int" name="NKREDY">     1</i>
   <i type="int" name="NKREDZ">     1</i>
   <i type="logical" name="SHIFTRED"> F  </i>
   <i type="logical" name="ODDONLY"> F  </i>
   <i type="logical" name="EVENONLY"> F  </i>
   <i type="int" name="LMAXFOCK">     0</i>
   <i type="int" name="NMAXFOCKAE">     0</i>
   <i type="logical" name="LFOCKAEDFT"> F  </i>
   <i name="HFSCREEN">      0.00000000</i>
   <i name="HFSCREENC">      0.00000000</i>
   <i type="int" name="NBANDSGWLOW">     0</i>
  </separator>
  <separator name="vdW DFT" >
   <i type="logical" name="LUSE_VDW"> F  </i>
   <i name="Zab_VDW">     -0.84910000</i>
   <i name="PARAM1">      0.12340000</i>
   <i name="PARAM2">      1.00000000</i>
   <i name="PARAM3">      0.00000000</i>
  </separator>
  <separator name="model GW" >
   <i type="int" name="MODEL_GW">     0</i>
   <i name="MODEL_EPS0">      6.12897204</i>
   <i name="MODEL_ALPHA">      1.00000000</i>
  </separator>
  <separator name="linear response parameters" >
   <i type="logical" name="LEPSILON"> F  </i>
   <i type="logical" name="LRPA"> F  </i>
   <i type="logical" name="LNABLA"> F  </i>
   <i type="logical" name="LVEL"> F  </i>
   <i type="int" name="KINTER">     0</i>
   <i name="CSHIFT">      0.10000000</i>
   <i name="OMEGAMAX">     -1.00000000</i>
   <i name="DEG_THRESHOLD">      0.00200000</i>
   <i name="RTIME">     -0.10000000</i>
   <i name="WPLASMAI">      0.00000000</i>
   <v name="DFIELD">      0.00000000      0.00000000      0.00000000</v>
   <v name="WPLASMA">      0.00000000      0.00000000      0.00000000      0.00000000      0.00000000      0.00000000      0.00000000      0.00000000      0.00000000</v>
  </separator>
  <separator name="orbital magnetization" >
   <i type="logical" name="NUCIND"> F  </i>
   <v name="MAGPOS">      0.00000000      0.00000000      0.00000000</v>
   <i type="logical" name="LNICSALL"> T  </i>
   <i type="logical" name="ORBITALMAG"> F  </i>
   <i type="logical" name="LMAGBLOCH"> F  </i>
   <i type="logical" name="LCHIMAG"> F  </i>
   <i type="logical" name="LGAUGE"> T  </i>
   <i type="int" name="MAGATOM">     0</i>
   <v name="MAGDIPOL">      0.00000000      0.00000000      0.00000000</v>
   <v name="AVECCONST">      0.00000000      0.00000000      0.00000000</v>
  </separator>
  <separator name="response functions" >
   <i type="logical" name="LADDER"> F  </i>
   <i type="logical" name="LRPAFORCE"> F  </i>
   <i type="logical" name="LFXC"> F  </i>
   <i type="logical" name="LHARTREE"> T  </i>
   <i type="int" name="IBSE">     0</i>
   <v type="int" name="KPOINT">    -1     0     0     0</v>
   <i type="logical" name="LTCTE"> F  </i>
   <i type="logical" name="LTETE"> F  </i>
   <i type="logical" name="LTRIPLET"> F  </i>
   <i type="logical" name="LFXCEPS"> F  </i>
   <i type="logical" name="LFXHEG"> F  </i>
   <i type="int" name="NATURALO">     2</i>
   <i type="logical" name="L2ORDER"> F  </i>
   <i type="logical" name="LMP2LT"> F  </i>
   <i type="logical" name="LUSEW"> F  </i>
   <i name="ENCUTGW">     -2.00000000</i>
   <i name="ENCUTGWSOFT">     -2.00000000</i>
   <i name="ENCUTLF">     -1.00000000</i>
   <i type="int" name="LMAXMP2">    -1</i>
   <i name="SCISSOR">      0.00000000</i>
   <i type="int" name="NOMEGA">     0</i>
   <i type="int" name="NOMEGAR">     0</i>
   <i type="int" name="NBANDSGW">    -1</i>
   <i type="int" name="NBANDSO">    -1</i>
   <i type="int" name="NBANDSV">    -1</i>
   <i type="int" name="NELM">   100</i>
   <i type="int" name="NELMHF">     1</i>
   <i type="int" name="DIM">     3</i>
   <i type="int" name="ANTIRES">     0</i>
   <i name="OMEGAMAX">    -30.00000000</i>
   <i name="OMEGAMIN">    -30.00000000</i>
   <i name="OMEGATL">   -200.00000000</i>
   <i type="int" name="OMEGAGRID">   140</i>
   <i name="CSHIFT">     -0.10000000</i>
   <i type="logical" name="SELFENERGY"> F  </i>
   <i type="logical" name="LSPECTRAL"> F  </i>
   <i type="logical" name="LSPECTRALGW"> F  </i>
   <i type="logical" name="LSINGLES"> F  </i>
   <i type="logical" name="LFERMIGW"> F  </i>
   <i type="logical" name="ODDONLYGW"> F  </i>
   <i type="logical" name="EVENONLYGW"> F  </i>
   <i type="int" name="NKREDLFX">     1</i>
   <i type="int" name="NKREDLFY">     1</i>
   <i type="int" name="NKREDLFZ">     1</i>
   <i type="int" name="MAXMEM">  2800</i>
   <i type="int" name="TELESCOPE">     0</i>
   <i type="int" name="TAUPAR">     1</i>
   <i type="int" name="OMEGAPAR">    -1</i>
   <i name="LAMBDA">      1.00000000</i>
  </separator>
  <separator name="External order field" >
   <i name="OFIELD_KAPPA">      0.00000000</i>
   <v name="OFIELD_K">      0.00000000      0.00000000      0.00000000</v>
   <i name="OFIELD_Q6_NEAR">      0.00000000</i>
   <i name="OFIELD_Q6_FAR">      0.00000000</i>
   <i name="OFIELD_A">      0.00000000</i>
  </separator>
 </parameters>
 <atominfo>
  <atoms>      12 </atoms>
  <types>       2 </types>
  <array name="atoms" >
   <dimension dim="1">ion</dimension>
   <field type="string">element</field>
   <field type="int">atomtype</field>
   <set>
    <rc><c>Mn</c><c>   1</c></rc>
    <rc><c>Mn</c><c>   1</c></rc>
    <rc><c>Mn</c><c>   1</c></rc>
    <rc><c>Mn</c><c>   1</c></rc>
    <rc><c>O </c><c>   2</c></rc>
    <rc><c>O </c><c>   2</c></rc>
    <rc><c>O </c><c>   2</c></rc>
    <rc><c>O </c><c>   2</c></rc>
    <rc><c>O </c><c>   2</c></rc>
    <rc><c>O </c><c>   2</c></rc>
    <rc><c>O </c><c>   2</c></rc>
    <rc><c>O </c><c>   2</c></rc>
   </set>
  </array>
  <array name="atomtypes" >
   <dimension dim="1">type</dimension>
   <field type="int">atomspertype</field>
   <field type="string">element</field>
   <field>mass</field>
   <field>valence</field>
   <field type="string">pseudopotential</field>
   <set>
    <rc><c>   4</c><c>Mn</c><c>     54.93800000</c><c>     13.00000000</c><c>  PAW_PBE Mn_pv 02Aug2007               </c></rc>
    <rc><c>   8</c><c>O </c><c>     16.00000000</c><c>      6.00000000</c><c>  PAW_PBE O 08Apr2002                   </c></rc>
   </set>
  </array>
 </atominfo>
 <structure name="initialpos" >
  <crystal>
   <varray name="basis" >
    <v>       2.86909745      -0.00001917       0.00000099 </v>
    <v>      -0.00003520       4.60482803      -0.00019922 </v>
    <v>       0.00001368      -0.00042551       9.27809728 </v>
   </varray>
   <i name="volume">    122.57944074 </i>
   <varray name="rec_basis" >
    <v>       0.34854166       0.00000266      -0.00000051 </v>
    <v>       0.00000145       0.21716338       0.00000996 </v>
    <v>      -0.00000004       0.00000466       0.10778072 </v>
   </varray>
  </crystal>
  <varray name="positions" >
   <v>       0.24999847       0.03174946       0.86401357 </v>
   <v>       0.75000233       0.96825231       0.13598395 </v>
   <v>       0.74999984       0.53181077       0.63599680 </v>
   <v>       0.24999904       0.46819357       0.36400388 </v>
   <v>       0.25000705       0.70976872       0.53362211 </v>
   <v>       0.75000535       0.20979862       0.96635494 </v>
   <v>       0.24999754       0.79020100       0.03364980 </v>
   <v>       0.74999071       0.29023415       0.46637136 </v>
   <v>       0.25000476       0.17634097       0.22196871 </v>
   <v>       0.24999595       0.32364569       0.72197149 </v>
   <v>       0.75000247       0.67635634       0.27802710 </v>
   <v>       0.74999649       0.82364938       0.77803731 </v>
  </varray>
 </structure>
 <calculation>
  <scstep>
   <time name="dav">   10.46   10.46</time>
   <time name="total">   11.41   11.44</time>
   <energy>
    <i name="alphaZ">    453.83610551 </i>
    <i name="ewald">  -7502.92034001 </i>
    <i name="hartreedc">  -3597.87196396 </i>
    <i name="XCdc">    498.94812155 </i>
    <i name="pawpsdc">  12054.73540596 </i>
    <i name="pawaedc"> -12293.41087347 </i>
    <i name="eentropy">     -0.00000000 </i>
    <i name="bandstr">  -1269.20002052 </i>
    <i name="atom">  11559.90638050 </i>
    <i name="e_fr_energy">    -95.97718445 </i>
    <i name="e_wo_entrp">    -95.97718445 </i>
    <i name="e_0_energy">    -95.97718445 </i>
   </energy>
  </scstep>
  <scstep>
   <time name="diag">    2.40    2.40</time>
   <time name="diis">    5.95    5.95</time>
   <time name="orth">    0.35    0.35</time>
   <time name="total">    9.56    9.57</time>
   <energy>
    <i name="e_fr_energy">    -95.97718530 </i>
    <i name="e_wo_entrp">    -95.97718530 </i>
    <i name="e_0_energy">    -95.97718530 </i>
   </energy>
  </scstep>
  <scstep>
   <time name="diag">    2.13    2.13</time>
   <time name="diis">    3.48    3.48</time>
   <time name="orth">    0.35    0.35</time>
   <time name="total">    6.81    6.82</time>
   <energy>
    <i name="e_fr_energy">    -95.97718418 </i>
    <i name="e_wo_entrp">    -95.97718418 </i>
    <i name="e_0_energy">    -95.97718418 </i>
   </energy>
  </scstep>
  <scstep>
   <time name="diag">    2.10    2.10</time>
   <time name="diis">    3.01    3.01</time>
   <time name="orth">    0.35    0.35</time>
   <time name="total">    5.79    5.79</time>
   <energy>
    <i name="alphaZ">    453.83610551 </i>
    <i name="ewald">  -7502.92034001 </i>
    <i name="hartreedc">  -3597.85211878 </i>
    <i name="XCdc">    498.94744148 </i>
    <i name="pawpsdc">  12054.86750179 </i>
    <i name="pawaedc"> -12293.54285810 </i>
    <i name="eentropy">     -0.00000000 </i>
    <i name="bandstr">  -1269.21929653 </i>
    <i name="atom">  11559.90638050 </i>
    <i name="e_fr_energy">    -95.97718414 </i>
    <i name="e_wo_entrp">    -95.97718414 </i>
    <i name="e_0_energy">    -95.97718414 </i>
   </energy>
  </scstep>
  <structure>
   <crystal>
    <varray name="basis" >
     <v>       2.86909745      -0.00001917       0.00000099 </v>
     <v>      -0.00003520       4.60482803      -0.00019922 </v>
     <v>       0.00001368      -0.00042551       9.27809728 </v>
    </varray>
    <i name="volume">    122.57944074 </i>
    <varray name="rec_basis" >
     <v>       0.34854166       0.00000266      -0.00000051 </v>
     <v>       0.00000145       0.21716338       0.00000996 </v>
     <v>      -0.00000004       0.00000466       0.10778072 </v>
    </varray>
   </crystal>
   <varray name="positions" >
    <v>       0.24999847       0.03174946       0.86401357 </v>
    <v>       0.75000233       0.96825231       0.13598395 </v>
    <v>       0.74999984       0.53181077       0.63599680 </v>
    <v>       0.24999904       0.46819357       0.36400388 </v>
    <v>       0.25000705       0.70976872       0.53362211 </v>
    <v>       0.75000535       0.20979862       0.96635494 </v>
    <v>       0.24999754       0.79020100       0.03364980 </v>
    <v>       0.74999071       0.29023415       0.46637136 </v>
    <v>       0.25000476       0.17634097       0.22196871 </v>
    <v>       0.24999595       0.32364569       0.72197149 </v>
    <v>       0.75000247       0.67635634       0.27802710 </v>
    <v>       0.74999649       0.82364938       0.77803731 </v>
   </varray>
  </structure>
  <varray name="forces" >
   <v>       0.00006364      -0.01020969       0.00254990 </v>
   <v>      -0.00003174       0.01004672      -0.00114791 </v>
   <v>      -0.00000328      -0.01824654      -0.00426647 </v>
   <v>      -0.00001134       0.01803821       0.00307517 </v>
   <v>      -0.00010767       0.00715675       0.01488854 </v>
   <v>      -0.00004259       0.00455205      -0.01026787 </v>
   <v>      -0.00001442      -0.00446695       0.00916118 </v>
   <v>       0.00013866      -0.00709501      -0.01369824 </v>
   <v>      -0.00004247       0.01393356       0.01583505 </v>
   <v>       0.00003318      -0.01252799       0.01592071 </v>
   <v>      -0.00000574       0.01236834      -0.01587019 </v>
   <v>       0.00002376      -0.01354944      -0.01617987 </v>
  </varray>
  <varray name="stress" >
   <v>       2.09218250       0.00544566      -0.00162605 </v>
   <v>       0.00544549       1.31835307       0.29618984 </v>
   <v>      -0.00162577       0.29619580      -0.98847394 </v>
  </varray>
  <energy>
   <i name="e_fr_energy">    -95.97718414 </i>
   <i name="e_wo_entrp">    -95.97718414 </i>
   <i name="e_0_energy">     -0.00000000 </i>
  </energy>
  <time name="totalsc">   44.67   45.44</time>
  <eigenvalues>
   <array>
    <dimension dim="1">band</dimension>
    <dimension dim="2">kpoint</dimension>
    <dimension dim="3">spin</dimension>
    <field>eigene</field>
    <field>occ</field>
    <set>
     <set comment="spin 1">
      <set comment="kpoint 1">
       <r>  -46.3207    1.0000 </r>
       <r>  -46.3203    1.0000 </r>
       <r>  -46.2614    1.0000 </r>
       <r>  -46.2610    1.0000 </r>
       <r>  -46.1911    1.0000 </r>
       <r>  -46.1909    1.0000 </r>
       <r>  -43.4485    1.0000 </r>
       <r>  -43.4477    1.0000 </r>
       <r>  -43.4208    1.0000 </r>
       <r>  -43.4202    1.0000 </r>
       <r>  -43.2922    1.0000 </r>
       <r>  -43.2917    1.0000 </r>
       <r>  -15.5484    1.0000 </r>
       <r>  -14.9232    1.0000 </r>
       <r>  -14.6800    1.0000 </r>
       <r>  -13.8686    1.0000 </r>
       <r>  -13.6318    1.0000 </r>
       <r>  -13.5845    1.0000 </r>
       <r>  -13.4277    1.0000 </r>
       <r>  -13.4194    1.0000 </r>
       <r>   -3.0124    1.0000 </r>
       <r>   -2.4201    1.0000 </r>
       <r>   -2.1566    1.0000 </r>
       <r>   -1.9691    1.0000 </r>
       <r>   -1.4158    1.0000 </r>
       <r>   -1.3408    1.0000 </r>
       <r>   -1.3316    1.0000 </r>
       <r>   -1.2840    1.0000 </r>
       <r>   -0.8974    1.0000 </r>
       <r>   -0.8378    1.0000 </r>
       <r>   -0.6277    1.0000 </r>
       <r>   -0.3601    1.0000 </r>
       <r>    0.0886    1.0000 </r>
       <r>    0.5288    1.0000 </r>
       <r>    0.7046    1.0000 </r>
       <r>    0.9577    1.0000 </r>
       <r>    0.9640    1.0000 </r>
       <r>    1.3483    1.0000 </r>
       <r>    1.6015    1.0000 </r>
       <r>    1.9601    1.0000 </r>
       <r>    2.2228    1.0000 </r>
       <r>    2.3344    1.0000 </r>
       <r>    2.4240    1.0000 </r>
       <r>    2.6154    1.0000 </r>
       <r>    2.6346    1.0000 </r>
       <r>    2.9906    1.0000 </r>
       <r>    3.1200    1.0000 </r>
       <r>    3.1455    1.0000 </r>
       <r>    3.2529    1.0000 </r>
       <r>    3.5205    1.0000 </r>
       <r>    4.7660    0.0000 </r>
       <r>    5.0549    0.0000 </r>
       <r>    5.0937    0.0000 </r>
       <r>    5.5215    0.0000 </r>
       <r>    5.6300    0.0000 </r>
       <r>    5.8952    0.0000 </r>
       <r>    6.1088    0.0000 </r>
       <r>    6.2897    0.0000 </r>
       <r>    6.6818    0.0000 </r>
       <r>    7.1890    0.0000 </r>
      </set>
      <set comment="kpoint 2">
       <r>  -46.3309    1.0000 </r>
       <r>  -46.3305    1.0000 </r>
       <r>  -46.2601    1.0000 </r>
       <r>  -46.2597    1.0000 </r>
       <r>  -46.1901    1.0000 </r>
       <r>  -46.1898    1.0000 </r>
       <r>  -43.4604    1.0000 </r>
       <r>  -43.4596    1.0000 </r>
       <r>  -43.4194    1.0000 </r>
       <r>  -43.4188    1.0000 </r>
       <r>  -43.2907    1.0000 </r>
       <r>  -43.2902    1.0000 </r>
       <r>  -15.4544    1.0000 </r>
       <r>  -14.8516    1.0000 </r>
       <r>  -14.6110    1.0000 </r>
       <r>  -13.8378    1.0000 </r>
       <r>  -13.6393    1.0000 </r>
       <r>  -13.5925    1.0000 </r>
       <r>  -13.4502    1.0000 </r>
       <r>  -13.4374    1.0000 </r>
       <r>   -2.8811    1.0000 </r>
       <r>   -2.3101    1.0000 </r>
       <r>   -2.0750    1.0000 </r>
       <r>   -1.8922    1.0000 </r>
       <r>   -1.5471    1.0000 </r>
       <r>   -1.3589    1.0000 </r>
       <r>   -1.3436    1.0000 </r>
       <r>   -1.3273    1.0000 </r>
       <r>   -0.9421    1.0000 </r>
       <r>   -0.8140    1.0000 </r>
       <r>   -0.5253    1.0000 </r>
       <r>   -0.1524    1.0000 </r>
       <r>   -0.1073    1.0000 </r>
       <r>    0.5056    1.0000 </r>
       <r>    0.5497    1.0000 </r>
       <r>    0.8418    1.0000 </r>
       <r>    0.9032    1.0000 </r>
       <r>    1.1712    1.0000 </r>
       <r>    1.4091    1.0000 </r>
       <r>    1.7371    1.0000 </r>
       <r>    1.9463    1.0000 </r>
       <r>    2.3239    1.0000 </r>
       <r>    2.5225    1.0000 </r>
       <r>    2.6858    1.0000 </r>
       <r>    2.8361    1.0000 </r>
       <r>    2.8402    1.0000 </r>
       <r>    3.0525    1.0000 </r>
       <r>    3.1638    1.0000 </r>
       <r>    3.3101    1.0000 </r>
       <r>    3.4767    1.0000 </r>
       <r>    4.7530    0.0000 </r>
       <r>    5.1558    0.0000 </r>
       <r>    5.3161    0.0000 </r>
       <r>    5.5776    0.0000 </r>
       <r>    5.7259    0.0000 </r>
       <r>    5.9759    0.0000 </r>
       <r>    6.0669    0.0000 </r>
       <r>    6.2298    0.0000 </r>
       <r>    6.4838    0.0000 </r>
       <r>    7.0153    0.0000 </r>
      </set>
      <set comment="kpoint 3">
       <r>  -46.3575    1.0000 </r>
       <r>  -46.3571    1.0000 </r>
       <r>  -46.2566    1.0000 </r>
       <r>  -46.2563    1.0000 </r>
       <r>  -46.1873    1.0000 </r>
       <r>  -46.1870    1.0000 </r>
       <r>  -43.4916    1.0000 </r>
       <r>  -43.4908    1.0000 </r>
       <r>  -43.4155    1.0000 </r>
       <r>  -43.4150    1.0000 </r>
       <r>  -43.2869    1.0000 </r>
       <r>  -43.2864    1.0000 </r>
       <r>  -15.1900    1.0000 </r>
       <r>  -14.6561    1.0000 </r>
       <r>  -14.4244    1.0000 </r>
       <r>  -13.7692    1.0000 </r>
       <r>  -13.6577    1.0000 </r>
       <r>  -13.6142    1.0000 </r>
       <r>  -13.5144    1.0000 </r>
       <r>  -13.4868    1.0000 </r>
       <r>   -2.5197    1.0000 </r>
       <r>   -2.0385    1.0000 </r>
       <r>   -1.8699    1.0000 </r>
       <r>   -1.7133    1.0000 </r>
       <r>   -1.6792    1.0000 </r>
       <r>   -1.5624    1.0000 </r>
       <r>   -1.4251    1.0000 </r>
       <r>   -1.2659    1.0000 </r>
       <r>   -0.9444    1.0000 </r>
       <r>   -0.6363    1.0000 </r>
       <r>   -0.6327    1.0000 </r>
       <r>   -0.2579    1.0000 </r>
       <r>   -0.2499    1.0000 </r>
       <r>   -0.0805    1.0000 </r>
       <r>    0.4445    1.0000 </r>
       <r>    0.7736    1.0000 </r>
       <r>    0.8768    1.0000 </r>
       <r>    1.1097    1.0000 </r>
       <r>    1.1233    1.0000 </r>
       <r>    1.2358    1.0000 </r>
       <r>    1.7428    1.0000 </r>
       <r>    2.1760    1.0000 </r>
       <r>    2.2989    1.0000 </r>
       <r>    2.6653    1.0000 </r>
       <r>    2.7667    1.0000 </r>
       <r>    2.8346    1.0000 </r>
       <r>    3.0229    1.0000 </r>
       <r>    3.2306    1.0000 </r>
       <r>    3.4001    1.0000 </r>
       <r>    3.4129    1.0000 </r>
       <r>    4.8815    0.0000 </r>
       <r>    5.3011    0.0000 </r>
       <r>    5.5554    0.0000 </r>
       <r>    5.6445    0.0000 </r>
       <r>    5.8278    0.0000 </r>
       <r>    5.9938    0.0000 </r>
       <r>    6.0136    0.0000 </r>
       <r>    6.0761    0.0000 </r>
       <r>    6.2765    0.0000 </r>
       <r>    6.6943    0.0000 </r>
      </set>
      <set comment="kpoint 4">
       <r>  -46.3902    1.0000 </r>
       <r>  -46.3898    1.0000 </r>
       <r>  -46.2524    1.0000 </r>
       <r>  -46.2520    1.0000 </r>
       <r>  -46.1838    1.0000 </r>
       <r>  -46.1836    1.0000 </r>
       <r>  -43.5299    1.0000 </r>
       <r>  -43.5291    1.0000 </r>
       <r>  -43.4108    1.0000 </r>
       <r>  -43.4104    1.0000 </r>
       <r>  -43.2822    1.0000 </r>
       <r>  -43.2817    1.0000 </r>
       <r>  -14.8070    1.0000 </r>
       <r>  -14.3904    1.0000 </r>
       <r>  -14.1786    1.0000 </r>
       <r>  -13.7270    1.0000 </r>
       <r>  -13.6780    1.0000 </r>
       <r>  -13.6444    1.0000 </r>
       <r>  -13.6102    1.0000 </r>
       <r>  -13.5538    1.0000 </r>
       <r>   -2.0553    1.0000 </r>
       <r>   -1.9096    1.0000 </r>
       <r>   -1.7747    1.0000 </r>
       <r>   -1.7084    1.0000 </r>
       <r>   -1.6518    1.0000 </r>
       <r>   -1.5644    1.0000 </r>
       <r>   -1.5261    1.0000 </r>
       <r>   -1.3709    1.0000 </r>
       <r>   -1.0756    1.0000 </r>
       <r>   -0.9159    1.0000 </r>
       <r>   -0.6450    1.0000 </r>
       <r>   -0.3192    1.0000 </r>
       <r>   -0.1622    1.0000 </r>
       <r>    0.0387    1.0000 </r>
       <r>    0.2759    1.0000 </r>
       <r>    0.5274    1.0000 </r>
       <r>    0.7404    1.0000 </r>
       <r>    0.8100    1.0000 </r>
       <r>    1.0697    1.0000 </r>
       <r>    1.1528    1.0000 </r>
       <r>    1.7856    1.0000 </r>
       <r>    1.8926    1.0000 </r>
       <r>    1.9503    1.0000 </r>
       <r>    2.2061    1.0000 </r>
       <r>    2.6675    1.0000 </r>
       <r>    2.8221    1.0000 </r>
       <r>    2.9926    1.0000 </r>
       <r>    3.1891    1.0000 </r>
       <r>    3.3425    1.0000 </r>
       <r>    3.4074    1.0000 </r>
       <r>    5.0522    0.0000 </r>
       <r>    5.4441    0.0000 </r>
       <r>    5.4994    0.0000 </r>
       <r>    5.5793    0.0000 </r>
       <r>    5.7491    0.0000 </r>
       <r>    5.8765    0.0000 </r>
       <r>    5.8845    0.0000 </r>
       <r>    6.1746    0.0000 </r>
       <r>    6.1853    0.0000 </r>
       <r>    6.5210    0.0000 </r>
      </set>
      <set comment="kpoint 5">
       <r>  -46.4166    1.0000 </r>
       <r>  -46.4161    1.0000 </r>
       <r>  -46.2490    1.0000 </r>
       <r>  -46.2486    1.0000 </r>
       <r>  -46.1810    1.0000 </r>
       <r>  -46.1807    1.0000 </r>
       <r>  -43.5608    1.0000 </r>
       <r>  -43.5600    1.0000 </r>
       <r>  -43.4071    1.0000 </r>
       <r>  -43.4067    1.0000 </r>
       <r>  -43.2783    1.0000 </r>
       <r>  -43.2778    1.0000 </r>
       <r>  -14.3871    1.0000 </r>
       <r>  -14.1274    1.0000 </r>
       <r>  -13.9573    1.0000 </r>
       <r>  -13.7923    1.0000 </r>
       <r>  -13.7282    1.0000 </r>
       <r>  -13.6962    1.0000 </r>
       <r>  -13.6809    1.0000 </r>
       <r>  -13.6084    1.0000 </r>
       <r>   -2.3460    1.0000 </r>
       <r>   -2.0829    1.0000 </r>
       <r>   -1.8430    1.0000 </r>
       <r>   -1.8079    1.0000 </r>
       <r>   -1.4889    1.0000 </r>
       <r>   -1.4411    1.0000 </r>
       <r>   -1.4335    1.0000 </r>
       <r>   -1.2354    1.0000 </r>
       <r>   -1.0789    1.0000 </r>
       <r>   -0.8853    1.0000 </r>
       <r>   -0.6069    1.0000 </r>
       <r>   -0.2254    1.0000 </r>
       <r>   -0.0699    1.0000 </r>
       <r>    0.1389    1.0000 </r>
       <r>    0.2608    1.0000 </r>
       <r>    0.4861    1.0000 </r>
       <r>    0.7999    1.0000 </r>
       <r>    0.9322    1.0000 </r>
       <r>    0.9642    1.0000 </r>
       <r>    1.0570    1.0000 </r>
       <r>    1.5820    1.0000 </r>
       <r>    1.6270    1.0000 </r>
       <r>    1.6900    1.0000 </r>
       <r>    1.7965    1.0000 </r>
       <r>    2.4840    1.0000 </r>
       <r>    2.5897    1.0000 </r>
       <r>    2.7730    1.0000 </r>
       <r>    3.1630    1.0000 </r>
       <r>    3.3321    1.0000 </r>
       <r>    3.3988    1.0000 </r>
       <r>    5.2089    0.0000 </r>
       <r>    5.3416    0.0000 </r>
       <r>    5.4677    0.0000 </r>
       <r>    5.5264    0.0000 </r>
       <r>    5.6883    0.0000 </r>
       <r>    5.8124    0.0000 </r>
       <r>    5.8849    0.0000 </r>
       <r>    6.0498    0.0000 </r>
       <r>    6.1344    0.0000 </r>
       <r>    6.4815    0.0000 </r>
      </set>
      <set comment="kpoint 6">
       <r>  -46.4267    1.0000 </r>
       <r>  -46.4262    1.0000 </r>
       <r>  -46.2477    1.0000 </r>
       <r>  -46.2473    1.0000 </r>
       <r>  -46.1799    1.0000 </r>
       <r>  -46.1796    1.0000 </r>
       <r>  -43.5726    1.0000 </r>
       <r>  -43.5717    1.0000 </r>
       <r>  -43.4057    1.0000 </r>
       <r>  -43.4053    1.0000 </r>
       <r>  -43.2768    1.0000 </r>
       <r>  -43.2763    1.0000 </r>
       <r>  -14.0489    1.0000 </r>
       <r>  -13.9971    1.0000 </r>
       <r>  -13.9501    1.0000 </r>
       <r>  -13.9014    1.0000 </r>
       <r>  -13.7918    1.0000 </r>
       <r>  -13.7197    1.0000 </r>
       <r>  -13.6993    1.0000 </r>
       <r>  -13.6289    1.0000 </r>
       <r>   -2.5192    1.0000 </r>
       <r>   -2.3235    1.0000 </r>
       <r>   -1.8995    1.0000 </r>
       <r>   -1.7920    1.0000 </r>
       <r>   -1.4823    1.0000 </r>
       <r>   -1.2939    1.0000 </r>
       <r>   -1.2688    1.0000 </r>
       <r>   -1.1584    1.0000 </r>
       <r>   -0.9636    1.0000 </r>
       <r>   -0.8762    1.0000 </r>
       <r>   -0.5551    1.0000 </r>
       <r>   -0.5532    1.0000 </r>
       <r>   -0.0022    1.0000 </r>
       <r>    0.2889    1.0000 </r>
       <r>    0.4450    1.0000 </r>
       <r>    0.6044    1.0000 </r>
       <r>    0.8089    1.0000 </r>
       <r>    0.8907    1.0000 </r>
       <r>    1.0163    1.0000 </r>
       <r>    1.2046    1.0000 </r>
       <r>    1.2856    1.0000 </r>
       <r>    1.5059    1.0000 </r>
       <r>    1.5629    1.0000 </r>
       <r>    1.6880    1.0000 </r>
       <r>    2.2923    1.0000 </r>
       <r>    2.3303    1.0000 </r>
       <r>    2.7665    1.0000 </r>
       <r>    3.1944    1.0000 </r>
       <r>    3.2797    1.0000 </r>
       <r>    3.4187    1.0000 </r>
       <r>    5.2839    0.0000 </r>
       <r>    5.3802    0.0000 </r>
       <r>    5.4303    0.0000 </r>
       <r>    5.4838    0.0000 </r>
       <r>    5.5330    0.0000 </r>
       <r>    5.7815    0.0000 </r>
       <r>    5.9049    0.0000 </r>
       <r>    6.0184    0.0000 </r>
       <r>    6.1380    0.0000 </r>
       <r>    6.4720    0.0000 </r>
      </set>
      <set comment="kpoint 7">
       <r>  -46.3207    1.0000 </r>
       <r>  -46.3203    1.0000 </r>
       <r>  -46.2614    1.0000 </r>
       <r>  -46.2610    1.0000 </r>
       <r>  -46.1912    1.0000 </r>
       <r>  -46.1909    1.0000 </r>
       <r>  -43.4485    1.0000 </r>
       <r>  -43.4477    1.0000 </r>
       <r>  -43.4208    1.0000 </r>
       <r>  -43.4202    1.0000 </r>
       <r>  -43.2922    1.0000 </r>
       <r>  -43.2917    1.0000 </r>
       <r>  -15.5035    1.0000 </r>
       <r>  -14.9294    1.0000 </r>
       <r>  -14.6419    1.0000 </r>
       <r>  -13.9063    1.0000 </r>
       <r>  -13.6335    1.0000 </r>
       <r>  -13.5968    1.0000 </r>
       <r>  -13.4517    1.0000 </r>
       <r>  -13.4492    1.0000 </r>
       <r>   -2.9847    1.0000 </r>
       <r>   -2.3829    1.0000 </r>
       <r>   -2.1738    1.0000 </r>
       <r>   -1.9477    1.0000 </r>
       <r>   -1.5440    1.0000 </r>
       <r>   -1.3310    1.0000 </r>
       <r>   -1.2851    1.0000 </r>
       <r>   -1.2466    1.0000 </r>
       <r>   -0.8433    1.0000 </r>
       <r>   -0.7918    1.0000 </r>
       <r>   -0.6327    1.0000 </r>
       <r>   -0.2961    1.0000 </r>
       <r>    0.0586    1.0000 </r>
       <r>    0.5129    1.0000 </r>
       <r>    0.8271    1.0000 </r>
       <r>    0.9812    1.0000 </r>
       <r>    0.9982    1.0000 </r>
       <r>    1.3616    1.0000 </r>
       <r>    1.6475    1.0000 </r>
       <r>    1.9688    1.0000 </r>
       <r>    2.0918    1.0000 </r>
       <r>    2.2097    1.0000 </r>
       <r>    2.3712    1.0000 </r>
       <r>    2.5793    1.0000 </r>
       <r>    2.5837    1.0000 </r>
       <r>    2.7989    1.0000 </r>
       <r>    2.9953    1.0000 </r>
       <r>    3.1463    1.0000 </r>
       <r>    3.4175    1.0000 </r>
       <r>    3.6109    1.0000 </r>
       <r>    4.7631    0.0000 </r>
       <r>    4.9999    0.0000 </r>
       <r>    5.0566    0.0000 </r>
       <r>    5.5190    0.0000 </r>
       <r>    5.6762    0.0000 </r>
       <r>    5.9687    0.0000 </r>
       <r>    6.1275    0.0000 </r>
       <r>    6.3260    0.0000 </r>
       <r>    6.6774    0.0000 </r>
       <r>    7.1875    0.0000 </r>
      </set>
      <set comment="kpoint 8">
       <r>  -46.3309    1.0000 </r>
       <r>  -46.3305    1.0000 </r>
       <r>  -46.2601    1.0000 </r>
       <r>  -46.2597    1.0000 </r>
       <r>  -46.1901    1.0000 </r>
       <r>  -46.1899    1.0000 </r>
       <r>  -43.4604    1.0000 </r>
       <r>  -43.4596    1.0000 </r>
       <r>  -43.4193    1.0000 </r>
       <r>  -43.4188    1.0000 </r>
       <r>  -43.2908    1.0000 </r>
       <r>  -43.2903    1.0000 </r>
       <r>  -15.4107    1.0000 </r>
       <r>  -14.8572    1.0000 </r>
       <r>  -14.5743    1.0000 </r>
       <r>  -13.8722    1.0000 </r>
       <r>  -13.6414    1.0000 </r>
       <r>  -13.6048    1.0000 </r>
       <r>  -13.4726    1.0000 </r>
       <r>  -13.4667    1.0000 </r>
       <r>   -2.8553    1.0000 </r>
       <r>   -2.2765    1.0000 </r>
       <r>   -2.0979    1.0000 </r>
       <r>   -1.8887    1.0000 </r>
       <r>   -1.5957    1.0000 </r>
       <r>   -1.4186    1.0000 </r>
       <r>   -1.3306    1.0000 </r>
       <r>   -1.2890    1.0000 </r>
       <r>   -0.8862    1.0000 </r>
       <r>   -0.8109    1.0000 </r>
       <r>   -0.4801    1.0000 </r>
       <r>   -0.0716    1.0000 </r>
       <r>   -0.0506    1.0000 </r>
       <r>    0.4177    1.0000 </r>
       <r>    0.5501    1.0000 </r>
       <r>    0.9578    1.0000 </r>
       <r>    0.9704    1.0000 </r>
       <r>    1.1732    1.0000 </r>
       <r>    1.4355    1.0000 </r>
       <r>    1.7197    1.0000 </r>
       <r>    1.9019    1.0000 </r>
       <r>    2.2329    1.0000 </r>
       <r>    2.4652    1.0000 </r>
       <r>    2.5172    1.0000 </r>
       <r>    2.6830    1.0000 </r>
       <r>    2.8175    1.0000 </r>
       <r>    3.0129    1.0000 </r>
       <r>    3.1826    1.0000 </r>
       <r>    3.3979    1.0000 </r>
       <r>    3.5780    1.0000 </r>
       <r>    4.7557    0.0000 </r>
       <r>    5.1280    0.0000 </r>
       <r>    5.2630    0.0000 </r>
       <r>    5.5507    0.0000 </r>
       <r>    5.7853    0.0000 </r>
       <r>    6.0053    0.0000 </r>
       <r>    6.0923    0.0000 </r>
       <r>    6.2824    0.0000 </r>
       <r>    6.4722    0.0000 </r>
       <r>    7.0123    0.0000 </r>
      </set>
      <set comment="kpoint 9">
       <r>  -46.3575    1.0000 </r>
       <r>  -46.3571    1.0000 </r>
       <r>  -46.2566    1.0000 </r>
       <r>  -46.2563    1.0000 </r>
       <r>  -46.1873    1.0000 </r>
       <r>  -46.1871    1.0000 </r>
       <r>  -43.4916    1.0000 </r>
       <r>  -43.4908    1.0000 </r>
       <r>  -43.4155    1.0000 </r>
       <r>  -43.4150    1.0000 </r>
       <r>  -43.2869    1.0000 </r>
       <r>  -43.2864    1.0000 </r>
       <r>  -15.1500    1.0000 </r>
       <r>  -14.6595    1.0000 </r>
       <r>  -14.3921    1.0000 </r>
       <r>  -13.7929    1.0000 </r>
       <r>  -13.6611    1.0000 </r>
       <r>  -13.6270    1.0000 </r>
       <r>  -13.5325    1.0000 </r>
       <r>  -13.5144    1.0000 </r>
       <r>   -2.5024    1.0000 </r>
       <r>   -2.0283    1.0000 </r>
       <r>   -1.9014    1.0000 </r>
       <r>   -1.7568    1.0000 </r>
       <r>   -1.7109    1.0000 </r>
       <r>   -1.6005    1.0000 </r>
       <r>   -1.4017    1.0000 </r>
       <r>   -1.3216    1.0000 </r>
       <r>   -0.8681    1.0000 </r>
       <r>   -0.7098    1.0000 </r>
       <r>   -0.4691    1.0000 </r>
       <r>   -0.2769    1.0000 </r>
       <r>   -0.2116    1.0000 </r>
       <r>    0.0969    1.0000 </r>
       <r>    0.4511    1.0000 </r>
       <r>    0.7028    1.0000 </r>
       <r>    0.8488    1.0000 </r>
       <r>    1.0563    1.0000 </r>
       <r>    1.1987    1.0000 </r>
       <r>    1.3140    1.0000 </r>
       <r>    1.7596    1.0000 </r>
       <r>    2.1266    1.0000 </r>
       <r>    2.1758    1.0000 </r>
       <r>    2.5395    1.0000 </r>
       <r>    2.7334    1.0000 </r>
       <r>    2.8587    1.0000 </r>
       <r>    2.9804    1.0000 </r>
       <r>    3.2624    1.0000 </r>
       <r>    3.3822    1.0000 </r>
       <r>    3.5403    1.0000 </r>
       <r>    4.8883    0.0000 </r>
       <r>    5.2974    0.0000 </r>
       <r>    5.4427    0.0000 </r>
       <r>    5.6702    0.0000 </r>
       <r>    5.8357    0.0000 </r>
       <r>    5.9735    0.0000 </r>
       <r>    6.0366    0.0000 </r>
       <r>    6.1369    0.0000 </r>
       <r>    6.2779    0.0000 </r>
       <r>    6.6831    0.0000 </r>
      </set>
      <set comment="kpoint 10">
       <r>  -46.3902    1.0000 </r>
       <r>  -46.3898    1.0000 </r>
       <r>  -46.2524    1.0000 </r>
       <r>  -46.2520    1.0000 </r>
       <r>  -46.1838    1.0000 </r>
       <r>  -46.1836    1.0000 </r>
       <r>  -43.5299    1.0000 </r>
       <r>  -43.5291    1.0000 </r>
       <r>  -43.4108    1.0000 </r>
       <r>  -43.4104    1.0000 </r>
       <r>  -43.2822    1.0000 </r>
       <r>  -43.2817    1.0000 </r>
       <r>  -14.7741    1.0000 </r>
       <r>  -14.3912    1.0000 </r>
       <r>  -14.1539    1.0000 </r>
       <r>  -13.7313    1.0000 </r>
       <r>  -13.6824    1.0000 </r>
       <r>  -13.6626    1.0000 </r>
       <r>  -13.6226    1.0000 </r>
       <r>  -13.5769    1.0000 </r>
       <r>   -2.0656    1.0000 </r>
       <r>   -1.9846    1.0000 </r>
       <r>   -1.8188    1.0000 </r>
       <r>   -1.6970    1.0000 </r>
       <r>   -1.6622    1.0000 </r>
       <r>   -1.6228    1.0000 </r>
       <r>   -1.5781    1.0000 </r>
       <r>   -1.3606    1.0000 </r>
       <r>   -1.0767    1.0000 </r>
       <r>   -0.8592    1.0000 </r>
       <r>   -0.4912    1.0000 </r>
       <r>   -0.4232    1.0000 </r>
       <r>   -0.0778    1.0000 </r>
       <r>    0.0384    1.0000 </r>
       <r>    0.3228    1.0000 </r>
       <r>    0.5917    1.0000 </r>
       <r>    0.7565    1.0000 </r>
       <r>    0.7907    1.0000 </r>
       <r>    1.0627    1.0000 </r>
       <r>    1.1284    1.0000 </r>
       <r>    1.8281    1.0000 </r>
       <r>    1.8517    1.0000 </r>
       <r>    1.9240    1.0000 </r>
       <r>    2.2704    1.0000 </r>
       <r>    2.6997    1.0000 </r>
       <r>    2.8207    1.0000 </r>
       <r>    2.9349    1.0000 </r>
       <r>    3.1860    1.0000 </r>
       <r>    3.3221    1.0000 </r>
       <r>    3.4781    1.0000 </r>
       <r>    5.0670    0.0000 </r>
       <r>    5.3901    0.0000 </r>
       <r>    5.4609    0.0000 </r>
       <r>    5.6193    0.0000 </r>
       <r>    5.7003    0.0000 </r>
       <r>    5.8762    0.0000 </r>
       <r>    5.9144    0.0000 </r>
       <r>    6.1248    0.0000 </r>
       <r>    6.2497    0.0000 </r>
       <r>    6.5041    0.0000 </r>
      </set>
      <set comment="kpoint 11">
       <r>  -46.4166    1.0000 </r>
       <r>  -46.4161    1.0000 </r>
       <r>  -46.2490    1.0000 </r>
       <r>  -46.2486    1.0000 </r>
       <r>  -46.1810    1.0000 </r>
       <r>  -46.1807    1.0000 </r>
       <r>  -43.5608    1.0000 </r>
       <r>  -43.5600    1.0000 </r>
       <r>  -43.4071    1.0000 </r>
       <r>  -43.4067    1.0000 </r>
       <r>  -43.2783    1.0000 </r>
       <r>  -43.2778    1.0000 </r>
       <r>  -14.3646    1.0000 </r>
       <r>  -14.1266    1.0000 </r>
       <r>  -13.9442    1.0000 </r>
       <r>  -13.7898    1.0000 </r>
       <r>  -13.7342    1.0000 </r>
       <r>  -13.7022    1.0000 </r>
       <r>  -13.6900    1.0000 </r>
       <r>  -13.6216    1.0000 </r>
       <r>   -2.3726    1.0000 </r>
       <r>   -2.1189    1.0000 </r>
       <r>   -1.8800    1.0000 </r>
       <r>   -1.8248    1.0000 </r>
       <r>   -1.5736    1.0000 </r>
       <r>   -1.4956    1.0000 </r>
       <r>   -1.4083    1.0000 </r>
       <r>   -1.2398    1.0000 </r>
       <r>   -1.0460    1.0000 </r>
       <r>   -0.9920    1.0000 </r>
       <r>   -0.5657    1.0000 </r>
       <r>   -0.2795    1.0000 </r>
       <r>    0.0519    1.0000 </r>
       <r>    0.1700    1.0000 </r>
       <r>    0.3153    1.0000 </r>
       <r>    0.4911    1.0000 </r>
       <r>    0.7537    1.0000 </r>
       <r>    0.8749    1.0000 </r>
       <r>    0.9548    1.0000 </r>
       <r>    1.1511    1.0000 </r>
       <r>    1.5467    1.0000 </r>
       <r>    1.6899    1.0000 </r>
       <r>    1.8032    1.0000 </r>
       <r>    1.9264    1.0000 </r>
       <r>    2.4874    1.0000 </r>
       <r>    2.5946    1.0000 </r>
       <r>    2.7972    1.0000 </r>
       <r>    3.1169    1.0000 </r>
       <r>    3.3409    1.0000 </r>
       <r>    3.3984    1.0000 </r>
       <r>    5.2237    0.0000 </r>
       <r>    5.3196    0.0000 </r>
       <r>    5.4496    0.0000 </r>
       <r>    5.5213    0.0000 </r>
       <r>    5.6212    0.0000 </r>
       <r>    5.8632    0.0000 </r>
       <r>    5.9059    0.0000 </r>
       <r>    6.0189    0.0000 </r>
       <r>    6.1683    0.0000 </r>
       <r>    6.4542    0.0000 </r>
      </set>
      <set comment="kpoint 12">
       <r>  -46.4267    1.0000 </r>
       <r>  -46.4262    1.0000 </r>
       <r>  -46.2477    1.0000 </r>
       <r>  -46.2473    1.0000 </r>
       <r>  -46.1799    1.0000 </r>
       <r>  -46.1796    1.0000 </r>
       <r>  -43.5725    1.0000 </r>
       <r>  -43.5717    1.0000 </r>
       <r>  -43.4057    1.0000 </r>
       <r>  -43.4053    1.0000 </r>
       <r>  -43.2768    1.0000 </r>
       <r>  -43.2763    1.0000 </r>
       <r>  -14.0394    1.0000 </r>
       <r>  -13.9877    1.0000 </r>
       <r>  -13.9500    1.0000 </r>
       <r>  -13.9013    1.0000 </r>
       <r>  -13.7898    1.0000 </r>
       <r>  -13.7177    1.0000 </r>
       <r>  -13.7067    1.0000 </r>
       <r>  -13.6363    1.0000 </r>
       <r>   -2.5370    1.0000 </r>
       <r>   -2.3446    1.0000 </r>
       <r>   -1.8869    1.0000 </r>
       <r>   -1.8686    1.0000 </r>
       <r>   -1.5160    1.0000 </r>
       <r>   -1.4351    1.0000 </r>
       <r>   -1.2179    1.0000 </r>
       <r>   -1.2024    1.0000 </r>
       <r>   -1.0533    1.0000 </r>
       <r>   -0.8913    1.0000 </r>
       <r>   -0.5223    1.0000 </r>
       <r>   -0.5143    1.0000 </r>
       <r>    0.0238    1.0000 </r>
       <r>    0.3083    1.0000 </r>
       <r>    0.5145    1.0000 </r>
       <r>    0.5589    1.0000 </r>
       <r>    0.6774    1.0000 </r>
       <r>    0.9654    1.0000 </r>
       <r>    1.0337    1.0000 </r>
       <r>    1.1444    1.0000 </r>
       <r>    1.4693    1.0000 </r>
       <r>    1.6372    1.0000 </r>
       <r>    1.6578    1.0000 </r>
       <r>    1.7845    1.0000 </r>
       <r>    2.2918    1.0000 </r>
       <r>    2.3307    1.0000 </r>
       <r>    2.7729    1.0000 </r>
       <r>    3.2129    1.0000 </r>
       <r>    3.2574    1.0000 </r>
       <r>    3.3942    1.0000 </r>
       <r>    5.2717    0.0000 </r>
       <r>    5.3768    0.0000 </r>
       <r>    5.3858    0.0000 </r>
       <r>    5.4762    0.0000 </r>
       <r>    5.5327    0.0000 </r>
       <r>    5.8482    0.0000 </r>
       <r>    5.8949    0.0000 </r>
       <r>    6.0308    0.0000 </r>
       <r>    6.1328    0.0000 </r>
       <r>    6.4381    0.0000 </r>
      </set>
      <set comment="kpoint 13">
       <r>  -46.4166    1.0000 </r>
       <r>  -46.4161    1.0000 </r>
       <r>  -46.2490    1.0000 </r>
       <r>  -46.2486    1.0000 </r>
       <r>  -46.1810    1.0000 </r>
       <r>  -46.1807    1.0000 </r>
       <r>  -43.5608    1.0000 </r>
       <r>  -43.5600    1.0000 </r>
       <r>  -43.4071    1.0000 </r>
       <r>  -43.4067    1.0000 </r>
       <r>  -43.2783    1.0000 </r>
       <r>  -43.2778    1.0000 </r>
       <r>  -14.3647    1.0000 </r>
       <r>  -14.1266    1.0000 </r>
       <r>  -13.9442    1.0000 </r>
       <r>  -13.7898    1.0000 </r>
       <r>  -13.7342    1.0000 </r>
       <r>  -13.7022    1.0000 </r>
       <r>  -13.6900    1.0000 </r>
       <r>  -13.6216    1.0000 </r>
       <r>   -2.3727    1.0000 </r>
       <r>   -2.1189    1.0000 </r>
       <r>   -1.8800    1.0000 </r>
       <r>   -1.8248    1.0000 </r>
       <r>   -1.5736    1.0000 </r>
       <r>   -1.4956    1.0000 </r>
       <r>   -1.4083    1.0000 </r>
       <r>   -1.2398    1.0000 </r>
       <r>   -1.0461    1.0000 </r>
       <r>   -0.9920    1.0000 </r>
       <r>   -0.5657    1.0000 </r>
       <r>   -0.2795    1.0000 </r>
       <r>    0.0519    1.0000 </r>
       <r>    0.1700    1.0000 </r>
       <r>    0.3152    1.0000 </r>
       <r>    0.4911    1.0000 </r>
       <r>    0.7537    1.0000 </r>
       <r>    0.8748    1.0000 </r>
       <r>    0.9548    1.0000 </r>
       <r>    1.1511    1.0000 </r>
       <r>    1.5468    1.0000 </r>
       <r>    1.6899    1.0000 </r>
       <r>    1.8033    1.0000 </r>
       <r>    1.9264    1.0000 </r>
       <r>    2.4874    1.0000 </r>
       <r>    2.5947    1.0000 </r>
       <r>    2.7972    1.0000 </r>
       <r>    3.1169    1.0000 </r>
       <r>    3.3409    1.0000 </r>
       <r>    3.3984    1.0000 </r>
       <r>    5.2237    0.0000 </r>
       <r>    5.3196    0.0000 </r>
       <r>    5.4496    0.0000 </r>
       <r>    5.5213    0.0000 </r>
       <r>    5.6212    0.0000 </r>
       <r>    5.8631    0.0000 </r>
       <r>    5.9059    0.0000 </r>
       <r>    6.0189    0.0000 </r>
       <r>    6.1683    0.0000 </r>
       <r>    6.4542    0.0000 </r>
      </set>
      <set comment="kpoint 14">
       <r>  -46.3902    1.0000 </r>
       <r>  -46.3898    1.0000 </r>
       <r>  -46.2524    1.0000 </r>
       <r>  -46.2520    1.0000 </r>
       <r>  -46.1838    1.0000 </r>
       <r>  -46.1836    1.0000 </r>
       <r>  -43.5299    1.0000 </r>
       <r>  -43.5291    1.0000 </r>
       <r>  -43.4108    1.0000 </r>
       <r>  -43.4104    1.0000 </r>
       <r>  -43.2822    1.0000 </r>
       <r>  -43.2817    1.0000 </r>
       <r>  -14.7741    1.0000 </r>
       <r>  -14.3912    1.0000 </r>
       <r>  -14.1539    1.0000 </r>
       <r>  -13.7313    1.0000 </r>
       <r>  -13.6824    1.0000 </r>
       <r>  -13.6626    1.0000 </r>
       <r>  -13.6226    1.0000 </r>
       <r>  -13.5769    1.0000 </r>
       <r>   -2.0656    1.0000 </r>
       <r>   -1.9846    1.0000 </r>
       <r>   -1.8188    1.0000 </r>
       <r>   -1.6970    1.0000 </r>
       <r>   -1.6622    1.0000 </r>
       <r>   -1.6228    1.0000 </r>
       <r>   -1.5781    1.0000 </r>
       <r>   -1.3605    1.0000 </r>
       <r>   -1.0767    1.0000 </r>
       <r>   -0.8592    1.0000 </r>
       <r>   -0.4912    1.0000 </r>
       <r>   -0.4232    1.0000 </r>
       <r>   -0.0778    1.0000 </r>
       <r>    0.0384    1.0000 </r>
       <r>    0.3228    1.0000 </r>
       <r>    0.5916    1.0000 </r>
       <r>    0.7565    1.0000 </r>
       <r>    0.7907    1.0000 </r>
       <r>    1.0627    1.0000 </r>
       <r>    1.1284    1.0000 </r>
       <r>    1.8281    1.0000 </r>
       <r>    1.8518    1.0000 </r>
       <r>    1.9240    1.0000 </r>
       <r>    2.2705    1.0000 </r>
       <r>    2.6997    1.0000 </r>
       <r>    2.8207    1.0000 </r>
       <r>    2.9350    1.0000 </r>
       <r>    3.1860    1.0000 </r>
       <r>    3.3221    1.0000 </r>
       <r>    3.4781    1.0000 </r>
       <r>    5.0670    0.0000 </r>
       <r>    5.3901    0.0000 </r>
       <r>    5.4609    0.0000 </r>
       <r>    5.6193    0.0000 </r>
       <r>    5.7003    0.0000 </r>
       <r>    5.8762    0.0000 </r>
       <r>    5.9144    0.0000 </r>
       <r>    6.1248    0.0000 </r>
       <r>    6.2497    0.0000 </r>
       <r>    6.5041    0.0000 </r>
      </set>
      <set comment="kpoint 15">
       <r>  -46.3575    1.0000 </r>
       <r>  -46.3571    1.0000 </r>
       <r>  -46.2566    1.0000 </r>
       <r>  -46.2563    1.0000 </r>
       <r>  -46.1873    1.0000 </r>
       <r>  -46.1871    1.0000 </r>
       <r>  -43.4916    1.0000 </r>
       <r>  -43.4908    1.0000 </r>
       <r>  -43.4155    1.0000 </r>
       <r>  -43.4150    1.0000 </r>
       <r>  -43.2869    1.0000 </r>
       <r>  -43.2864    1.0000 </r>
       <r>  -15.1500    1.0000 </r>
       <r>  -14.6595    1.0000 </r>
       <r>  -14.3921    1.0000 </r>
       <r>  -13.7929    1.0000 </r>
       <r>  -13.6611    1.0000 </r>
       <r>  -13.6270    1.0000 </r>
       <r>  -13.5325    1.0000 </r>
       <r>  -13.5144    1.0000 </r>
       <r>   -2.5025    1.0000 </r>
       <r>   -2.0283    1.0000 </r>
       <r>   -1.9014    1.0000 </r>
       <r>   -1.7568    1.0000 </r>
       <r>   -1.7109    1.0000 </r>
       <r>   -1.6005    1.0000 </r>
       <r>   -1.4017    1.0000 </r>
       <r>   -1.3216    1.0000 </r>
       <r>   -0.8681    1.0000 </r>
       <r>   -0.7098    1.0000 </r>
       <r>   -0.4691    1.0000 </r>
       <r>   -0.2769    1.0000 </r>
       <r>   -0.2116    1.0000 </r>
       <r>    0.0969    1.0000 </r>
       <r>    0.4511    1.0000 </r>
       <r>    0.7028    1.0000 </r>
       <r>    0.8488    1.0000 </r>
       <r>    1.0563    1.0000 </r>
       <r>    1.1986    1.0000 </r>
       <r>    1.3140    1.0000 </r>
       <r>    1.7596    1.0000 </r>
       <r>    2.1266    1.0000 </r>
       <r>    2.1758    1.0000 </r>
       <r>    2.5395    1.0000 </r>
       <r>    2.7334    1.0000 </r>
       <r>    2.8587    1.0000 </r>
       <r>    2.9804    1.0000 </r>
       <r>    3.2624    1.0000 </r>
       <r>    3.3822    1.0000 </r>
       <r>    3.5403    1.0000 </r>
       <r>    4.8883    0.0000 </r>
       <r>    5.2974    0.0000 </r>
       <r>    5.4427    0.0000 </r>
       <r>    5.6702    0.0000 </r>
       <r>    5.8357    0.0000 </r>
       <r>    5.9735    0.0000 </r>
       <r>    6.0366    0.0000 </r>
       <r>    6.1369    0.0000 </r>
       <r>    6.2779    0.0000 </r>
       <r>    6.6831    0.0000 </r>
      </set>
      <set comment="kpoint 16">
       <r>  -46.3309    1.0000 </r>
       <r>  -46.3305    1.0000 </r>
       <r>  -46.2601    1.0000 </r>
       <r>  -46.2597    1.0000 </r>
       <r>  -46.1901    1.0000 </r>
       <r>  -46.1899    1.0000 </r>
       <r>  -43.4604    1.0000 </r>
       <r>  -43.4596    1.0000 </r>
       <r>  -43.4193    1.0000 </r>
       <r>  -43.4188    1.0000 </r>
       <r>  -43.2908    1.0000 </r>
       <r>  -43.2903    1.0000 </r>
       <r>  -15.4107    1.0000 </r>
       <r>  -14.8572    1.0000 </r>
       <r>  -14.5743    1.0000 </r>
       <r>  -13.8722    1.0000 </r>
       <r>  -13.6414    1.0000 </r>
       <r>  -13.6048    1.0000 </r>
       <r>  -13.4726    1.0000 </r>
       <r>  -13.4667    1.0000 </r>
       <r>   -2.8554    1.0000 </r>
       <r>   -2.2765    1.0000 </r>
       <r>   -2.0979    1.0000 </r>
       <r>   -1.8887    1.0000 </r>
       <r>   -1.5957    1.0000 </r>
       <r>   -1.4186    1.0000 </r>
       <r>   -1.3306    1.0000 </r>
       <r>   -1.2890    1.0000 </r>
       <r>   -0.8862    1.0000 </r>
       <r>   -0.8109    1.0000 </r>
       <r>   -0.4802    1.0000 </r>
       <r>   -0.0716    1.0000 </r>
       <r>   -0.0506    1.0000 </r>
       <r>    0.4177    1.0000 </r>
       <r>    0.5501    1.0000 </r>
       <r>    0.9578    1.0000 </r>
       <r>    0.9704    1.0000 </r>
       <r>    1.1732    1.0000 </r>
       <r>    1.4355    1.0000 </r>
       <r>    1.7197    1.0000 </r>
       <r>    1.9019    1.0000 </r>
       <r>    2.2329    1.0000 </r>
       <r>    2.4652    1.0000 </r>
       <r>    2.5172    1.0000 </r>
       <r>    2.6830    1.0000 </r>
       <r>    2.8175    1.0000 </r>
       <r>    3.0129    1.0000 </r>
       <r>    3.1826    1.0000 </r>
       <r>    3.3979    1.0000 </r>
       <r>    3.5780    1.0000 </r>
       <r>    4.7557    0.0000 </r>
       <r>    5.1280    0.0000 </r>
       <r>    5.2630    0.0000 </r>
       <r>    5.5507    0.0000 </r>
       <r>    5.7853    0.0000 </r>
       <r>    6.0053    0.0000 </r>
       <r>    6.0923    0.0000 </r>
       <r>    6.2824    0.0000 </r>
       <r>    6.4722    0.0000 </r>
       <r>    7.0123    0.0000 </r>
      </set>
      <set comment="kpoint 17">
       <r>  -46.3207    1.0000 </r>
       <r>  -46.3203    1.0000 </r>
       <r>  -46.2614    1.0000 </r>
       <r>  -46.2611    1.0000 </r>
       <r>  -46.1912    1.0000 </r>
       <r>  -46.1910    1.0000 </r>
       <r>  -43.4485    1.0000 </r>
       <r>  -43.4477    1.0000 </r>
       <r>  -43.4208    1.0000 </r>
       <r>  -43.4203    1.0000 </r>
       <r>  -43.2923    1.0000 </r>
       <r>  -43.2918    1.0000 </r>
       <r>  -15.3801    1.0000 </r>
       <r>  -14.9644    1.0000 </r>
       <r>  -14.5342    1.0000 </r>
       <r>  -14.0205    1.0000 </r>
       <r>  -13.6443    1.0000 </r>
       <r>  -13.6109    1.0000 </r>
       <r>  -13.5131    1.0000 </r>
       <r>  -13.5089    1.0000 </r>
       <r>   -2.8972    1.0000 </r>
       <r>   -2.3925    1.0000 </r>
       <r>   -2.2550    1.0000 </r>
       <r>   -1.8704    1.0000 </r>
       <r>   -1.5229    1.0000 </r>
       <r>   -1.3311    1.0000 </r>
       <r>   -1.2857    1.0000 </r>
       <r>   -1.1783    1.0000 </r>
       <r>   -0.8571    1.0000 </r>
       <r>   -0.6848    1.0000 </r>
       <r>   -0.6426    1.0000 </r>
       <r>   -0.0327    1.0000 </r>
       <r>    0.1091    1.0000 </r>
       <r>    0.4858    1.0000 </r>
       <r>    0.9420    1.0000 </r>
       <r>    1.0258    1.0000 </r>
       <r>    1.1161    1.0000 </r>
       <r>    1.3223    1.0000 </r>
       <r>    1.7639    1.0000 </r>
       <r>    1.7914    1.0000 </r>
       <r>    1.9909    1.0000 </r>
       <r>    1.9910    1.0000 </r>
       <r>    2.1380    1.0000 </r>
       <r>    2.4502    1.0000 </r>
       <r>    2.4944    1.0000 </r>
       <r>    2.5915    1.0000 </r>
       <r>    2.9521    1.0000 </r>
       <r>    2.9953    1.0000 </r>
       <r>    3.5784    1.0000 </r>
       <r>    3.7951    1.0000 </r>
       <r>    4.7576    0.0000 </r>
       <r>    4.9085    0.0000 </r>
       <r>    4.9835    0.0000 </r>
       <r>    5.5114    0.0000 </r>
       <r>    5.8006    0.0000 </r>
       <r>    6.0900    0.0000 </r>
       <r>    6.1729    0.0000 </r>
       <r>    6.4040    0.0000 </r>
       <r>    6.6685    0.0000 </r>
       <r>    7.1827    0.0000 </r>
      </set>
      <set comment="kpoint 18">
       <r>  -46.3309    1.0000 </r>
       <r>  -46.3305    1.0000 </r>
       <r>  -46.2601    1.0000 </r>
       <r>  -46.2597    1.0000 </r>
       <r>  -46.1902    1.0000 </r>
       <r>  -46.1899    1.0000 </r>
       <r>  -43.4604    1.0000 </r>
       <r>  -43.4596    1.0000 </r>
       <r>  -43.4193    1.0000 </r>
       <r>  -43.4188    1.0000 </r>
       <r>  -43.2908    1.0000 </r>
       <r>  -43.2903    1.0000 </r>
       <r>  -15.2907    1.0000 </r>
       <r>  -14.8895    1.0000 </r>
       <r>  -14.4705    1.0000 </r>
       <r>  -13.9790    1.0000 </r>
       <r>  -13.6527    1.0000 </r>
       <r>  -13.6187    1.0000 </r>
       <r>  -13.5292    1.0000 </r>
       <r>  -13.5263    1.0000 </r>
       <r>   -2.7751    1.0000 </r>
       <r>   -2.2830    1.0000 </r>
       <r>   -2.1943    1.0000 </r>
       <r>   -1.8228    1.0000 </r>
       <r>   -1.6046    1.0000 </r>
       <r>   -1.4687    1.0000 </r>
       <r>   -1.3069    1.0000 </r>
       <r>   -1.2866    1.0000 </r>
       <r>   -0.8464    1.0000 </r>
       <r>   -0.7100    1.0000 </r>
       <r>   -0.4374    1.0000 </r>
       <r>    0.0307    1.0000 </r>
       <r>    0.2465    1.0000 </r>
       <r>    0.3319    1.0000 </r>
       <r>    0.5709    1.0000 </r>
       <r>    1.0452    1.0000 </r>
       <r>    1.1215    1.0000 </r>
       <r>    1.2332    1.0000 </r>
       <r>    1.4562    1.0000 </r>
       <r>    1.5852    1.0000 </r>
       <r>    1.8434    1.0000 </r>
       <r>    2.0355    1.0000 </r>
       <r>    2.1225    1.0000 </r>
       <r>    2.3048    1.0000 </r>
       <r>    2.5368    1.0000 </r>
       <r>    2.7833    1.0000 </r>
       <r>    2.9476    1.0000 </r>
       <r>    3.1247    1.0000 </r>
       <r>    3.5494    1.0000 </r>
       <r>    3.7464    1.0000 </r>
       <r>    4.7804    0.0000 </r>
       <r>    5.0727    0.0000 </r>
       <r>    5.1721    0.0000 </r>
       <r>    5.5071    0.0000 </r>
       <r>    5.8826    0.0000 </r>
       <r>    6.0550    0.0000 </r>
       <r>    6.1628    0.0000 </r>
       <r>    6.3880    0.0000 </r>
       <r>    6.4523    0.0000 </r>
       <r>    7.0072    0.0000 </r>
      </set>
      <set comment="kpoint 19">
       <r>  -46.3575    1.0000 </r>
       <r>  -46.3571    1.0000 </r>
       <r>  -46.2566    1.0000 </r>
       <r>  -46.2563    1.0000 </r>
       <r>  -46.1874    1.0000 </r>
       <r>  -46.1871    1.0000 </r>
       <r>  -43.4916    1.0000 </r>
       <r>  -43.4908    1.0000 </r>
       <r>  -43.4155    1.0000 </r>
       <r>  -43.4151    1.0000 </r>
       <r>  -43.2870    1.0000 </r>
       <r>  -43.2865    1.0000 </r>
       <r>  -15.0409    1.0000 </r>
       <r>  -14.6845    1.0000 </r>
       <r>  -14.3007    1.0000 </r>
       <r>  -13.8762    1.0000 </r>
       <r>  -13.6746    1.0000 </r>
       <r>  -13.6406    1.0000 </r>
       <r>  -13.5768    1.0000 </r>
       <r>  -13.5726    1.0000 </r>
       <r>   -2.4503    1.0000 </r>
       <r>   -2.0926    1.0000 </r>
       <r>   -1.9597    1.0000 </r>
       <r>   -1.7766    1.0000 </r>
       <r>   -1.7306    1.0000 </r>
       <r>   -1.6684    1.0000 </r>
       <r>   -1.4727    1.0000 </r>
       <r>   -1.3689    1.0000 </r>
       <r>   -0.7135    1.0000 </r>
       <r>   -0.6325    1.0000 </r>
       <r>   -0.3399    1.0000 </r>
       <r>   -0.2424    1.0000 </r>
       <r>   -0.1333    1.0000 </r>
       <r>    0.2822    1.0000 </r>
       <r>    0.5673    1.0000 </r>
       <r>    0.6656    1.0000 </r>
       <r>    0.7867    1.0000 </r>
       <r>    1.0966    1.0000 </r>
       <r>    1.2669    1.0000 </r>
       <r>    1.4469    1.0000 </r>
       <r>    1.7399    1.0000 </r>
       <r>    1.8548    1.0000 </r>
       <r>    2.0159    1.0000 </r>
       <r>    2.3259    1.0000 </r>
       <r>    2.7013    1.0000 </r>
       <r>    2.7199    1.0000 </r>
       <r>    3.0402    1.0000 </r>
       <r>    3.2318    1.0000 </r>
       <r>    3.4914    1.0000 </r>
       <r>    3.6614    1.0000 </r>
       <r>    4.9340    0.0000 </r>
       <r>    5.2671    0.0000 </r>
       <r>    5.3630    0.0000 </r>
       <r>    5.6118    0.0000 </r>
       <r>    5.8044    0.0000 </r>
       <r>    5.9065    0.0000 </r>
       <r>    6.0880    0.0000 </r>
       <r>    6.2612    0.0000 </r>
       <r>    6.3531    0.0000 </r>
       <r>    6.6506    0.0000 </r>
      </set>
      <set comment="kpoint 20">
       <r>  -46.3902    1.0000 </r>
       <r>  -46.3898    1.0000 </r>
       <r>  -46.2524    1.0000 </r>
       <r>  -46.2520    1.0000 </r>
       <r>  -46.1839    1.0000 </r>
       <r>  -46.1836    1.0000 </r>
       <r>  -43.5299    1.0000 </r>
       <r>  -43.5291    1.0000 </r>
       <r>  -43.4108    1.0000 </r>
       <r>  -43.4104    1.0000 </r>
       <r>  -43.2823    1.0000 </r>
[...]
       <r>    -4.8746     0.0000    20.0000 </r>
       <r>    -4.6780     0.0000    20.0000 </r>
       <r>    -4.4814     0.0000    20.0000 </r>
       <r>    -4.2848     0.0000    20.0000 </r>
       <r>    -4.0882     0.0000    20.0000 </r>
       <r>    -3.8916     0.0000    20.0000 </r>
       <r>    -3.6950     0.0000    20.0000 </r>
       <r>    -3.4984     0.0000    20.0000 </r>
       <r>    -3.3018     0.0000    20.0000 </r>
       <r>    -3.1052     0.0000    20.0000 </r>
       <r>    -2.9086     0.0433    20.0121 </r>
       <r>    -2.7120     0.4569    20.1648 </r>
       <r>    -2.5155     0.8279    20.4378 </r>
       <r>    -2.3189     1.7801    21.0464 </r>
       <r>    -2.1223     1.7089    21.7788 </r>
       <r>    -1.9257     1.7318    22.9155 </r>
       <r>    -1.7291     1.9938    24.0313 </r>
       <r>    -1.5325     3.5036    25.5745 </r>
       <r>    -1.3359     2.5700    27.1017 </r>
       <r>    -1.1393     0.4654    28.0093 </r>
       <r>    -0.9427     1.2863    28.5172 </r>
       <r>    -0.7461     2.2103    29.5274 </r>
       <r>    -0.5495     1.6811    30.2091 </r>
       <r>    -0.3529     1.7837    31.0185 </r>
       <r>    -0.1564     1.3025    31.8632 </r>
       <r>     0.0402     0.9282    32.4039 </r>
       <r>     0.2368     1.3909    33.1091 </r>
       <r>     0.4334     2.4979    34.3375 </r>
       <r>     0.6300     1.4233    35.3548 </r>
       <r>     0.8266     2.9343    36.5090 </r>
       <r>     1.0232     2.6800    37.6947 </r>
       <r>     1.2198     1.8298    38.6240 </r>
       <r>     1.4164     1.4082    39.3411 </r>
       <r>     1.6130     1.5890    40.0410 </r>
       <r>     1.8096     2.2990    41.0270 </r>
       <r>     2.0062     1.7028    42.0455 </r>
       <r>     2.2027     2.6544    43.0433 </r>
       <r>     2.3993     1.4554    43.8433 </r>
       <r>     2.5959     1.9501    44.5798 </r>
       <r>     2.7925     3.0339    45.8072 </r>
       <r>     2.9891     2.0898    46.6466 </r>
       <r>     3.1857     2.5716    47.8520 </r>
       <r>     3.3823     1.8879    48.5997 </r>
       <r>     3.5789     1.4531    49.5892 </r>
       <r>     3.7755     0.3638    49.9287 </r>
       <r>     3.9721     0.0363    50.0000 </r>
       <r>     4.1687     0.0000    50.0000 </r>
       <r>     4.3653     0.0000    50.0000 </r>
       <r>     4.5618     0.0000    50.0000 </r>
       <r>     4.7584     0.1342    50.0264 </r>
       <r>     4.9550     0.9006    50.3806 </r>
       <r>     5.1516     1.7662    51.1258 </r>
       <r>     5.3482     2.2865    52.3674 </r>
       <r>     5.5448     3.6244    53.8482 </r>
       <r>     5.7414     1.2291    54.5702 </r>
       <r>     5.9380     2.8083    55.7842 </r>
       <r>     6.1346     2.6780    57.1336 </r>
       <r>     6.3312     3.0199    58.3080 </r>
       <r>     6.5278     1.0663    59.2989 </r>
       <r>     6.7244     0.3088    59.5750 </r>
       <r>     6.9209     0.0205    59.7290 </r>
       <r>     7.1175     0.0436    59.9336 </r>
       <r>     7.3141     0.0000    60.0000 </r>
       <r>     7.5107     0.0000    60.0000 </r>
       <r>     7.7073     0.0000    60.0000 </r>
       <r>     7.9039     0.0000    60.0000 </r>
       <r>     8.1005     0.0000    60.0000 </r>
       <r>     8.2971     0.0000    60.0000 </r>
       <r>     8.4937     0.0000    60.0000 </r>
       <r>     8.6903     0.0000    60.0000 </r>
       <r>     8.8869     0.0000    60.0000 </r>
       <r>     9.0834     0.0000    60.0000 </r>
       <r>     9.2800     0.0000    60.0000 </r>
       <r>     9.4766     0.0000    60.0000 </r>
       <r>     9.6732     0.0000    60.0000 </r>
       <r>     9.8698     0.0000    60.0000 </r>
      </set>
      <set comment="spin 2">
       <r>   -49.1077     0.0000     0.0000 </r>
       <r>   -48.9111     0.0000     0.0000 </r>
       <r>   -48.7145     0.0000     0.0000 </r>
       <r>   -48.5179     0.0000     0.0000 </r>
       <r>   -48.3213     0.0000     0.0000 </r>
       <r>   -48.1247     0.0000     0.0000 </r>
       <r>   -47.9281     0.0000     0.0000 </r>
       <r>   -47.7315     0.0000     0.0000 </r>
       <r>   -47.5349     0.0000     0.0000 </r>
       <r>   -47.3383     0.0000     0.0000 </r>
       <r>   -47.1418     0.0000     0.0000 </r>
       <r>   -46.9452     0.0000     0.0000 </r>
       <r>   -46.7486     0.0000     0.0000 </r>
       <r>   -46.5520     0.0000     0.0000 </r>
       <r>   -46.3554     6.3255     1.2435 </r>
       <r>   -46.1588    10.1697     5.9993 </r>
       <r>   -45.9622     0.0000     6.0000 </r>
       <r>   -45.7656     0.0000     6.0000 </r>
       <r>   -45.5690     0.0000     6.0000 </r>
       <r>   -45.3724     0.0000     6.0000 </r>
       <r>   -45.1758     0.0000     6.0000 </r>
       <r>   -44.9792     0.0000     6.0000 </r>
       <r>   -44.7827     0.0000     6.0000 </r>
       <r>   -44.5861     0.0000     6.0000 </r>
       <r>   -44.3895     0.0000     6.0000 </r>
       <r>   -44.1929     0.0000     6.0000 </r>
       <r>   -43.9963     0.0000     6.0000 </r>
       <r>   -43.7997     0.0000     6.0000 </r>
       <r>   -43.6031     0.0000     6.0000 </r>
       <r>   -43.4065    10.7736     9.5180 </r>
       <r>   -43.2099     7.1214    12.0000 </r>
       <r>   -43.0133     0.0000    12.0000 </r>
       <r>   -42.8167     0.0000    12.0000 </r>
       <r>   -42.6201     0.0000    12.0000 </r>
       <r>   -42.4236     0.0000    12.0000 </r>
       <r>   -42.2270     0.0000    12.0000 </r>
       <r>   -42.0304     0.0000    12.0000 </r>
       <r>   -41.8338     0.0000    12.0000 </r>
       <r>   -41.6372     0.0000    12.0000 </r>
       <r>   -41.4406     0.0000    12.0000 </r>
       <r>   -41.2440     0.0000    12.0000 </r>
       <r>   -41.0474     0.0000    12.0000 </r>
       <r>   -40.8508     0.0000    12.0000 </r>
       <r>   -40.6542     0.0000    12.0000 </r>
       <r>   -40.4576     0.0000    12.0000 </r>
       <r>   -40.2610     0.0000    12.0000 </r>
       <r>   -40.0645     0.0000    12.0000 </r>
       <r>   -39.8679     0.0000    12.0000 </r>
       <r>   -39.6713     0.0000    12.0000 </r>
       <r>   -39.4747     0.0000    12.0000 </r>
       <r>   -39.2781     0.0000    12.0000 </r>
       <r>   -39.0815     0.0000    12.0000 </r>
       <r>   -38.8849     0.0000    12.0000 </r>
       <r>   -38.6883     0.0000    12.0000 </r>
       <r>   -38.4917     0.0000    12.0000 </r>
       <r>   -38.2951     0.0000    12.0000 </r>
       <r>   -38.0985     0.0000    12.0000 </r>
       <r>   -37.9019     0.0000    12.0000 </r>
       <r>   -37.7054     0.0000    12.0000 </r>
       <r>   -37.5088     0.0000    12.0000 </r>
       <r>   -37.3122     0.0000    12.0000 </r>
       <r>   -37.1156     0.0000    12.0000 </r>
       <r>   -36.9190     0.0000    12.0000 </r>
       <r>   -36.7224     0.0000    12.0000 </r>
       <r>   -36.5258     0.0000    12.0000 </r>
       <r>   -36.3292     0.0000    12.0000 </r>
       <r>   -36.1326     0.0000    12.0000 </r>
       <r>   -35.9360     0.0000    12.0000 </r>
       <r>   -35.7394     0.0000    12.0000 </r>
       <r>   -35.5428     0.0000    12.0000 </r>
       <r>   -35.3463     0.0000    12.0000 </r>
       <r>   -35.1497     0.0000    12.0000 </r>
       <r>   -34.9531     0.0000    12.0000 </r>
       <r>   -34.7565     0.0000    12.0000 </r>
       <r>   -34.5599     0.0000    12.0000 </r>
       <r>   -34.3633     0.0000    12.0000 </r>
       <r>   -34.1667     0.0000    12.0000 </r>
       <r>   -33.9701     0.0000    12.0000 </r>
       <r>   -33.7735     0.0000    12.0000 </r>
       <r>   -33.5769     0.0000    12.0000 </r>
       <r>   -33.3803     0.0000    12.0000 </r>
       <r>   -33.1837     0.0000    12.0000 </r>
       <r>   -32.9872     0.0000    12.0000 </r>
       <r>   -32.7906     0.0000    12.0000 </r>
       <r>   -32.5940     0.0000    12.0000 </r>
       <r>   -32.3974     0.0000    12.0000 </r>
       <r>   -32.2008     0.0000    12.0000 </r>
       <r>   -32.0042     0.0000    12.0000 </r>
       <r>   -31.8076     0.0000    12.0000 </r>
       <r>   -31.6110     0.0000    12.0000 </r>
       <r>   -31.4144     0.0000    12.0000 </r>
       <r>   -31.2178     0.0000    12.0000 </r>
       <r>   -31.0212     0.0000    12.0000 </r>
       <r>   -30.8246     0.0000    12.0000 </r>
       <r>   -30.6281     0.0000    12.0000 </r>
       <r>   -30.4315     0.0000    12.0000 </r>
       <r>   -30.2349     0.0000    12.0000 </r>
       <r>   -30.0383     0.0000    12.0000 </r>
       <r>   -29.8417     0.0000    12.0000 </r>
       <r>   -29.6451     0.0000    12.0000 </r>
       <r>   -29.4485     0.0000    12.0000 </r>
       <r>   -29.2519     0.0000    12.0000 </r>
       <r>   -29.0553     0.0000    12.0000 </r>
       <r>   -28.8587     0.0000    12.0000 </r>
       <r>   -28.6621     0.0000    12.0000 </r>
       <r>   -28.4655     0.0000    12.0000 </r>
       <r>   -28.2690     0.0000    12.0000 </r>
       <r>   -28.0724     0.0000    12.0000 </r>
       <r>   -27.8758     0.0000    12.0000 </r>
       <r>   -27.6792     0.0000    12.0000 </r>
       <r>   -27.4826     0.0000    12.0000 </r>
       <r>   -27.2860     0.0000    12.0000 </r>
       <r>   -27.0894     0.0000    12.0000 </r>
       <r>   -26.8928     0.0000    12.0000 </r>
       <r>   -26.6962     0.0000    12.0000 </r>
       <r>   -26.4996     0.0000    12.0000 </r>
       <r>   -26.3030     0.0000    12.0000 </r>
       <r>   -26.1064     0.0000    12.0000 </r>
       <r>   -25.9099     0.0000    12.0000 </r>
       <r>   -25.7133     0.0000    12.0000 </r>
       <r>   -25.5167     0.0000    12.0000 </r>
       <r>   -25.3201     0.0000    12.0000 </r>
       <r>   -25.1235     0.0000    12.0000 </r>
       <r>   -24.9269     0.0000    12.0000 </r>
       <r>   -24.7303     0.0000    12.0000 </r>
       <r>   -24.5337     0.0000    12.0000 </r>
       <r>   -24.3371     0.0000    12.0000 </r>
       <r>   -24.1405     0.0000    12.0000 </r>
       <r>   -23.9439     0.0000    12.0000 </r>
       <r>   -23.7473     0.0000    12.0000 </r>
       <r>   -23.5508     0.0000    12.0000 </r>
       <r>   -23.3542     0.0000    12.0000 </r>
       <r>   -23.1576     0.0000    12.0000 </r>
       <r>   -22.9610     0.0000    12.0000 </r>
       <r>   -22.7644     0.0000    12.0000 </r>
       <r>   -22.5678     0.0000    12.0000 </r>
       <r>   -22.3712     0.0000    12.0000 </r>
       <r>   -22.1746     0.0000    12.0000 </r>
       <r>   -21.9780     0.0000    12.0000 </r>
       <r>   -21.7814     0.0000    12.0000 </r>
       <r>   -21.5848     0.0000    12.0000 </r>
       <r>   -21.3882     0.0000    12.0000 </r>
       <r>   -21.1917     0.0000    12.0000 </r>
       <r>   -20.9951     0.0000    12.0000 </r>
       <r>   -20.7985     0.0000    12.0000 </r>
       <r>   -20.6019     0.0000    12.0000 </r>
       <r>   -20.4053     0.0000    12.0000 </r>
       <r>   -20.2087     0.0000    12.0000 </r>
       <r>   -20.0121     0.0000    12.0000 </r>
       <r>   -19.8155     0.0000    12.0000 </r>
       <r>   -19.6189     0.0000    12.0000 </r>
       <r>   -19.4223     0.0000    12.0000 </r>
       <r>   -19.2257     0.0000    12.0000 </r>
       <r>   -19.0292     0.0000    12.0000 </r>
       <r>   -18.8326     0.0000    12.0000 </r>
       <r>   -18.6360     0.0000    12.0000 </r>
       <r>   -18.4394     0.0000    12.0000 </r>
       <r>   -18.2428     0.0000    12.0000 </r>
       <r>   -18.0462     0.0000    12.0000 </r>
       <r>   -17.8496     0.0000    12.0000 </r>
       <r>   -17.6530     0.0000    12.0000 </r>
       <r>   -17.4564     0.0000    12.0000 </r>
       <r>   -17.2598     0.0000    12.0000 </r>
       <r>   -17.0632     0.0000    12.0000 </r>
       <r>   -16.8666     0.0000    12.0000 </r>
       <r>   -16.6701     0.0000    12.0000 </r>
       <r>   -16.4735     0.0000    12.0000 </r>
       <r>   -16.2769     0.0000    12.0000 </r>
       <r>   -16.0803     0.0000    12.0000 </r>
       <r>   -15.8837     0.0000    12.0000 </r>
       <r>   -15.6871     0.0000    12.0000 </r>
       <r>   -15.4905     0.0831    12.0163 </r>
       <r>   -15.2939     0.3506    12.1439 </r>
       <r>   -15.0973     0.8048    12.4261 </r>
       <r>   -14.9007     0.3053    12.7422 </r>
       <r>   -14.7041     0.5091    13.0287 </r>
       <r>   -14.5075     0.6736    13.3003 </r>
       <r>   -14.3110     0.8461    13.6842 </r>
       <r>   -14.1144     1.7350    14.4089 </r>
       <r>   -13.9178     2.3015    15.2168 </r>
       <r>   -13.7212     3.9993    16.5362 </r>
       <r>   -13.5246     3.0095    19.5274 </r>
       <r>   -13.3280     0.0000    20.0000 </r>
       <r>   -13.1314     0.0000    20.0000 </r>
       <r>   -12.9348     0.0000    20.0000 </r>
       <r>   -12.7382     0.0000    20.0000 </r>
       <r>   -12.5416     0.0000    20.0000 </r>
       <r>   -12.3450     0.0000    20.0000 </r>
       <r>   -12.1484     0.0000    20.0000 </r>
       <r>   -11.9519     0.0000    20.0000 </r>
       <r>   -11.7553     0.0000    20.0000 </r>
       <r>   -11.5587     0.0000    20.0000 </r>
       <r>   -11.3621     0.0000    20.0000 </r>
       <r>   -11.1655     0.0000    20.0000 </r>
       <r>   -10.9689     0.0000    20.0000 </r>
       <r>   -10.7723     0.0000    20.0000 </r>
       <r>   -10.5757     0.0000    20.0000 </r>
       <r>   -10.3791     0.0000    20.0000 </r>
       <r>   -10.1825     0.0000    20.0000 </r>
       <r>    -9.9859     0.0000    20.0000 </r>
       <r>    -9.7893     0.0000    20.0000 </r>
       <r>    -9.5928     0.0000    20.0000 </r>
       <r>    -9.3962     0.0000    20.0000 </r>
       <r>    -9.1996     0.0000    20.0000 </r>
       <r>    -9.0030     0.0000    20.0000 </r>
       <r>    -8.8064     0.0000    20.0000 </r>
       <r>    -8.6098     0.0000    20.0000 </r>
       <r>    -8.4132     0.0000    20.0000 </r>
       <r>    -8.2166     0.0000    20.0000 </r>
       <r>    -8.0200     0.0000    20.0000 </r>
       <r>    -7.8234     0.0000    20.0000 </r>
       <r>    -7.6268     0.0000    20.0000 </r>
       <r>    -7.4302     0.0000    20.0000 </r>
       <r>    -7.2337     0.0000    20.0000 </r>
       <r>    -7.0371     0.0000    20.0000 </r>
       <r>    -6.8405     0.0000    20.0000 </r>
       <r>    -6.6439     0.0000    20.0000 </r>
       <r>    -6.4473     0.0000    20.0000 </r>
       <r>    -6.2507     0.0000    20.0000 </r>
       <r>    -6.0541     0.0000    20.0000 </r>
       <r>    -5.8575     0.0000    20.0000 </r>
       <r>    -5.6609     0.0000    20.0000 </r>
       <r>    -5.4643     0.0000    20.0000 </r>
       <r>    -5.2677     0.0000    20.0000 </r>
       <r>    -5.0711     0.0000    20.0000 </r>
       <r>    -4.8746     0.0000    20.0000 </r>
       <r>    -4.6780     0.0000    20.0000 </r>
       <r>    -4.4814     0.0000    20.0000 </r>
       <r>    -4.2848     0.0000    20.0000 </r>
       <r>    -4.0882     0.0000    20.0000 </r>
       <r>    -3.8916     0.0000    20.0000 </r>
       <r>    -3.6950     0.0000    20.0000 </r>
       <r>    -3.4984     0.0000    20.0000 </r>
       <r>    -3.3018     0.0000    20.0000 </r>
       <r>    -3.1052     0.0000    20.0000 </r>
       <r>    -2.9086     0.0433    20.0121 </r>
       <r>    -2.7120     0.4570    20.1648 </r>
       <r>    -2.5155     0.8280    20.4378 </r>
       <r>    -2.3189     1.7802    21.0464 </r>
       <r>    -2.1223     1.7088    21.7788 </r>
       <r>    -1.9257     1.7315    22.9154 </r>
       <r>    -1.7291     1.9941    24.0313 </r>
       <r>    -1.5325     3.5039    25.5746 </r>
       <r>    -1.3359     2.5706    27.1018 </r>
       <r>    -1.1393     0.4655    28.0094 </r>
       <r>    -0.9427     1.2864    28.5172 </r>
       <r>    -0.7461     2.2102    29.5274 </r>
       <r>    -0.5495     1.6809    30.2090 </r>
       <r>    -0.3529     1.7837    31.0185 </r>
       <r>    -0.1564     1.3024    31.8632 </r>
       <r>     0.0402     0.9284    32.4039 </r>
       <r>     0.2368     1.3910    33.1092 </r>
       <r>     0.4334     2.4982    34.3376 </r>
       <r>     0.6300     1.4232    35.3548 </r>
       <r>     0.8266     2.9343    36.5090 </r>
       <r>     1.0232     2.6802    37.6948 </r>
       <r>     1.2198     1.8298    38.6240 </r>
       <r>     1.4164     1.4081    39.3411 </r>
       <r>     1.6130     1.5891    40.0410 </r>
       <r>     1.8096     2.2991    41.0270 </r>
       <r>     2.0062     1.7029    42.0455 </r>
       <r>     2.2027     2.6547    43.0433 </r>
       <r>     2.3993     1.4557    43.8433 </r>
       <r>     2.5959     1.9506    44.5799 </r>
       <r>     2.7925     2.9620    45.8073 </r>
       <r>     2.9891     2.0910    46.6468 </r>
       <r>     3.1857     2.5727    47.8522 </r>
       <r>     3.3823     1.8884    48.5998 </r>
       <r>     3.5789     1.4534    49.5893 </r>
       <r>     3.7755     0.3638    49.9287 </r>
       <r>     3.9721     0.0363    50.0000 </r>
       <r>     4.1687     0.0000    50.0000 </r>
       <r>     4.3653     0.0000    50.0000 </r>
       <r>     4.5618     0.0000    50.0000 </r>
       <r>     4.7584     0.1340    50.0263 </r>
       <r>     4.9550     0.9006    50.3806 </r>
       <r>     5.1516     1.7656    51.1257 </r>
       <r>     5.3482     2.2862    52.3673 </r>
       <r>     5.5448     3.6227    53.8479 </r>
       <r>     5.7414     1.2288    54.5701 </r>
       <r>     5.9380     2.8084    55.7843 </r>
       <r>     6.1346     2.6777    57.1336 </r>
       <r>     6.3312     3.0202    58.3080 </r>
       <r>     6.5278     1.0663    59.2989 </r>
       <r>     6.7244     0.3088    59.5750 </r>
       <r>     6.9209     0.0205    59.7290 </r>
       <r>     7.1175     0.0437    59.9336 </r>
       <r>     7.3141     0.0000    60.0000 </r>
       <r>     7.5107     0.0000    60.0000 </r>
       <r>     7.7073     0.0000    60.0000 </r>
       <r>     7.9039     0.0000    60.0000 </r>
       <r>     8.1005     0.0000    60.0000 </r>
       <r>     8.2971     0.0000    60.0000 </r>
       <r>     8.4937     0.0000    60.0000 </r>
       <r>     8.6903     0.0000    60.0000 </r>
       <r>     8.8869     0.0000    60.0000 </r>
       <r>     9.0834     0.0000    60.0000 </r>
       <r>     9.2800     0.0000    60.0000 </r>
       <r>     9.4766     0.0000    60.0000 </r>
       <r>     9.6732     0.0000    60.0000 </r>
       <r>     9.8698     0.0000    60.0000 </r>
      </set>
     </set>
    </array>
   </total>
  </dos>
 </calculation>
 <structure name="finalpos" >
  <crystal>
   <varray name="basis" >
    <v>       2.86909745      -0.00001917       0.00000099 </v>
    <v>      -0.00003520       4.60482803      -0.00019922 </v>
    <v>       0.00001368      -0.00042551       9.27809728 </v>
   </varray>
   <i name="volume">    122.57944074 </i>
   <varray name="rec_basis" >
    <v>       0.34854166       0.00000266      -0.00000051 </v>
    <v>       0.00000145       0.21716338       0.00000996 </v>
    <v>      -0.00000004       0.00000466       0.10778072 </v>
   </varray>
  </crystal>
  <varray name="positions" >
   <v>       0.24999847       0.03174946       0.86401357 </v>
   <v>       0.75000233       0.96825231       0.13598395 </v>
   <v>       0.74999984       0.53181077       0.63599680 </v>
   <v>       0.24999904       0.46819357       0.36400388 </v>
   <v>       0.25000705       0.70976872       0.53362211 </v>
   <v>       0.75000535       0.20979862       0.96635494 </v>
   <v>       0.24999754       0.79020100       0.03364980 </v>
   <v>       0.74999071       0.29023415       0.46637136 </v>
   <v>       0.25000476       0.17634097       0.22196871 </v>
   <v>       0.24999595       0.32364569       0.72197149 </v>
   <v>       0.75000247       0.67635634       0.27802710 </v>
   <v>       0.74999649       0.82364938       0.77803731 </v>
  </varray>
 </structure>
</modeling>
