unknown system                          
           1
     2.869097   -0.000019    0.000001
    -0.000035    4.604828   -0.000199
     0.000014   -0.000426    9.278097
   Mn   O 
   4   8
Direct configuration=     1
   0.24999847  0.03174946  0.86401357
   0.75000233  0.96825231  0.13598395
   0.74999984  0.53181077  0.63599680
   0.24999904  0.46819357  0.36400388
   0.25000705  0.70976872  0.53362211
   0.75000535  0.20979862  0.96635494
   0.24999754  0.79020100  0.03364980
   0.74999071  0.29023415  0.46637136
   0.25000476  0.17634097  0.22196871
   0.24999595  0.32364569  0.72197149
   0.75000247  0.67635634  0.27802710
   0.74999649  0.82364938  0.77803731
