unknown system                          
   1.00000000000000     
     0.000004    2.028819    2.028819
     2.028819    0.000004    2.028819
     2.028819    2.028819    0.000004
   Li   F 
     1     1
Direct
  0.000000  0.000000  0.000000
  0.500000  0.500000  0.500000
 
   48   48   48
 0.72421446617E-09 0.52834131903E-09 0.56645742408E-09 0.29174547223E-09 0.31546962549E-09
 0.91235118912E-10 0.16771899693E-09 0.47959059551E-11 0.84825915757E-10 -.37929702219E-10
 0.22674430390E-10 -.17821617012E-10 -.41159452420E-11 0.25188871177E-09 0.85959006466E-10
 -.41182490944E-09 -.11743804639E-08 -.94513963134E-09 -.17035726200E-08 0.78894984297E-09
 0.13867530622E-08 0.33893006039E-08 -.25291703965E-08 -.35833303278E-08 0.55382258779E-08
 -.35831699687E-08 -.25291516922E-08 0.33892937743E-08 0.13867440349E-08 0.78894110667E-09
 -.17035806430E-08 -.94514181399E-09 -.11743665108E-08 -.41182624040E-09 0.85955810018E-10
 0.25188638070E-09 -.41165805302E-11 -.17840204391E-10 0.22669323721E-10 -.37929783473E-10
 0.84832149617E-10 0.47938155164E-11 0.16771873968E-09 0.91243429138E-10 0.31546217189E-09
 0.29174926013E-09 0.56645770077E-09 0.52831116417E-09 0.52825636632E-09 0.59906652450E-09
 0.33829248857E-09 0.35949038858E-09 0.12422615167E-09 0.19025638733E-09 0.24539790580E-10
 0.10214295387E-09 -.25268949184E-10 0.33747196964E-10 -.34391072149E-10 0.98875394679E-11
 0.78535139412E-10 -.13060733334E-09 0.13119154469E-09 0.57585561710E-09 0.13571448045E-08
 0.10727612857E-08 0.19509142706E-08 -.52681782352E-09 -.10581379189E-08 -.32742500159E-08
 0.23417337650E-08 0.39148240205E-08 -.54758005028E-08 0.34295767636E-08 0.29484488071E-08
 -.32214823542E-08 -.14017523471E-08 -.71990628464E-09 0.17964201765E-08 0.11575453681E-08
 0.13399592727E-08 0.59995803475E-09 0.24387304154E-10 -.14024637891E-09 0.26893650641E-10
 0.12699306586E-10 -.43298631628E-10 0.71934754687E-10 -.98411781717E-11 0.14762887291E-09
 0.58604372456E-10 0.26227049537E-09 0.21666007499E-09 0.48448229404E-09 0.45081303478E-09
 0.67778691909E-09 0.56637511491E-09 0.33828560562E-09 0.37667488783E-09 0.14529474794E-09
 0.20867408908E-09 0.43215142380E-10 0.12150310382E-09 -.81311095848E-11 0.49607793421E-10
 -.37113252184E-10 0.25564118706E-11 0.13578024452E-10 -.16488846163E-10 0.26594023779E-09
 -.39804277235E-10 -.43336207479E-09 -.12479006259E-08 -.90114051212E-09 -.18916206512E-08
 0.57941818275E-09 0.10220675866E-08 0.33939983772E-08 -.19827886000E-08 -.41259000829E-08
 0.55604383252E-08 -.31100980079E-08 -.31493749342E-08 0.33331990708E-08 0.17332063416E-08
 0.96222295253E-09 -.15935901711E-08 -.10749995872E-08 -.11990171453E-08 -.47306310069E-09
 0.12794143576E-09 0.17685718811E-09 -.24947354884E-10 -.41341181791E-10 0.59648691336E-10
 -.19385345271E-10 0.13262171565E-09 0.32943244022E-10 0.21746092517E-09 0.13802647703E-09
 0.38222257981E-09 0.33458782038E-09 0.56836855277E-09 0.45077657002E-09 0.29171650453E-09
 0.35948421129E-09 0.14531676389E-09 0.21585490585E-09 0.54658102591E-10 0.13621318247E-09
 0.78202108909E-11 0.65858940633E-10 -.30715960154E-10 0.20092034611E-11 -.18236589018E-10
 -.18640753696E-10 0.79629131079E-10 -.20568838924E-09 0.15359070333E-09 0.47330854343E-09
 0.13229231568E-08 0.92916171568E-09 0.20571320538E-08 -.41143694919E-09 -.79066420753E-09
 -.33624884908E-08 0.17288077330E-08 0.44378935425E-08 -.55616076881E-08 0.29437554283E-08
 0.35633057917E-08 -.32253028413E-08 -.18697478482E-08 -.10257737511E-08 0.15661176716E-08
 0.11809558969E-08 0.12726297401E-08 0.55090444835E-09 -.14490477052E-09 -.17724052386E-09
 -.95992722642E-11 0.39176480569E-10 -.28869981345E-10 0.11907285491E-09 0.13111864722E-10
 0.18643847569E-09 0.77430723245E-10 0.28852276914E-09 0.21280231948E-09 0.44060913783E-09
 0.33462219732E-09 0.48448072956E-09 0.31557085626E-09 0.12419268427E-09 0.20870240084E-09
 0.54587118251E-10 0.14156230029E-09 0.16919029162E-10 0.76798657076E-10 -.23770820103E-10
 0.63589159737E-11 -.31943328945E-10 -.30984335061E-10 0.17531702119E-10 -.85759386187E-10
 0.22841158872E-09 -.20766289816E-09 -.46733574958E-09 -.13393877895E-08 -.85080558234E-09
 -.20873431849E-08 0.38956102274E-09 0.67410528640E-09 0.33971166246E-08 -.14395160736E-08
 -.47412741114E-08 0.56452346417E-08 -.26716399680E-08 -.38649787012E-08 0.32482813040E-08
 0.21256024454E-08 0.11590927484E-08 -.14943411870E-08 -.12286514909E-08 -.12638986586E-08
 -.55525256270E-09 0.17604228638E-09 0.13147243599E-09 -.15021973483E-10 -.39270115755E-10
 0.98628069065E-10 -.53701137629E-11 0.16218392394E-09 0.36471849629E-10 0.22348881662E-09
 0.11280192984E-09 0.32311168101E-09 0.21278560103E-09 0.38223140084E-09 0.21666545299E-09
 0.91243619408E-10 0.19022843610E-09 0.43217507828E-10 0.13619049511E-09 0.16965856873E-10
 0.80402223632E-10 -.20631164697E-10 0.96405808245E-11 -.35959040452E-10 -.32923799536E-10
 -.63395763908E-11 -.74335109948E-10 0.59051943415E-10 -.29816239263E-09 0.19996100125E-09
 0.40733613432E-09 0.13585384349E-08 0.82573916391E-09 0.22036146660E-08 -.30492812069E-09
 -.53272126298E-09 -.34477858370E-08 0.11129870012E-08 0.50607141431E-08 -.57200591314E-08
 0.24734500791E-08 0.42831041920E-08 -.32196613188E-08 -.24250794937E-08 -.13743885922E-08
 0.13455421150E-08 0.12320163003E-08 0.12344767355E-08 0.51864191835E-09 -.28564980331E-09
 -.17634231274E-09 -.16721887566E-10 0.64485994974E-10 -.27340629969E-10 0.13872935018E-09
 0.46132024620E-11 0.18176387125E-09 0.46566333205E-10 0.23849969088E-09 0.11278535986E-09
 0.28851814541E-09 0.13802548926E-09 0.26225576273E-09 0.16762393643E-09 0.24476734409E-10
 0.12151353651E-09 0.79117614581E-11 0.76813644144E-10 -.20678856391E-10 0.10556169647E-10
 -.36619873300E-10 -.30468993448E-10 -.12950544346E-10 -.72000343402E-10 0.18516245370E-10
 -.15820494613E-09 0.23645223131E-09 -.31251248769E-09 -.40640296845E-09 -.13703670911E-08
 -.73810712651E-09 -.22709408497E-08 0.23643415156E-09 0.35219326525E-09 0.34290689221E-08
 -.84715659991E-09 -.54561935455E-08 0.58396704904E-08 -.22088505070E-08 -.46786005070E-08
 0.32004463605E-08 0.26934750833E-08 0.14811195020E-08 -.13350228732E-08 -.13637742990E-08
 -.13137293589E-08 -.58097140378E-09 0.29127175981E-09 0.12282359960E-09 -.41983662555E-11
 -.47506178905E-10 0.10940818094E-09 -.23660219152E-10 0.14944472597E-09 0.12749090508E-11
 0.18552675765E-09 0.46486241723E-10 0.22348558718E-09 0.77468358712E-10 0.21742294647E-09
 0.58549757079E-10 0.47815774474E-11 0.10215639986E-09 -.81203092352E-11 0.65867821148E-10
 -.23766608695E-10 0.96373660184E-11 -.36656537096E-10 -.28930712161E-10 -.13492577369E-10
 -.66262391054E-10 0.69382440433E-11 -.13715382934E-09 0.77128463949E-10 -.33690992654E-09
 0.33697908758E-09 0.40136366715E-09 0.14534258157E-08 0.71689798724E-09 0.23691895909E-08
 -.21195028324E-09 -.25483198132E-09 -.35151971596E-08 0.47784175515E-09 0.58643795681E-08
 -.59553465067E-08 0.20268124956E-08 0.52057176273E-08 -.31869490009E-08 -.31289431295E-08
 -.17965067367E-08 0.11231911334E-08 0.13337516762E-08 0.12694608408E-08 0.52401303467E-09
 -.41979265668E-09 -.17267169603E-09 -.22323329694E-10 0.70758309847E-10 -.50289110050E-10
 0.12062096337E-09 -.34784272713E-10 0.14748873951E-09 0.12961632380E-11 0.18174403684E-09
 0.36502383179E-10 0.18640509785E-09 0.32960612893E-10 0.14766465207E-09 0.84700430530E-10
 -.25366945323E-10 0.49615441779E-10 -.30675404326E-10 0.63624107657E-11 -.35957939935E-10
 -.30459034556E-10 -.13434799558E-10 -.63389905605E-10 0.48660744646E-11 -.13199093882E-09
 0.43864821666E-10 -.19537848860E-09 0.31843862144E-09 -.38015714551E-09 -.31662328063E-09
 -.14453087091E-08 -.63278180132E-09 -.24891905436E-08 0.12961194317E-09 0.69467524740E-10
 0.35165402246E-08 -.15843232246E-09 -.63577169115E-08 0.61688870385E-08 -.17337794139E-08
 -.57316588054E-08 0.31563641357E-08 0.35148974202E-08 0.19471837665E-08 -.11177892352E-08
 -.14933184486E-08 -.13743570542E-08 -.57946798170E-09 0.44319920312E-09 0.12529902981E-09
 -.53453507118E-11 -.66531711844E-10 0.90760653276E-10 -.63278205421E-10 0.11688813586E-09
 -.34775882191E-10 0.14944724167E-09 0.46054932097E-11 0.16221456538E-09 0.13131700118E-10
 0.13265549779E-09 -.99212717637E-11 -.37914075043E-10 0.33769040248E-10 -.37073164130E-10
 0.20227113604E-11 -.31967371154E-10 -.32959428199E-10 -.12968098021E-10 -.66272200461E-10
 0.47801488694E-11 -.12989170906E-09 0.34018975054E-10 -.18020123428E-09 0.15323397653E-09
 -.36090177223E-09 0.48310780996E-09 0.32932069608E-09 0.15256076058E-08 0.55710465579E-09
 0.25886133586E-08 -.10044250718E-09 0.67388853435E-10 -.35853383667E-08 -.23804898464E-09
 0.69562606523E-08 -.63447001785E-08 0.15553274974E-08 0.64347169844E-08 -.31857710833E-08
 -.42016066039E-08 -.23886783682E-08 0.86286646284E-09 0.14773796395E-08 0.13678449323E-08
 0.51340480367E-09 -.59516947787E-09 -.18415596628E-09 -.21043319394E-10 0.56812078712E-10
 -.82577146798E-10 0.90220286884E-10 -.63390290361E-10 0.12060064232E-09 -.23674339954E-10
 0.13872437373E-09 -.53639061649E-11 0.11906963155E-09 -.19337917259E-10 0.71969055256E-10
 0.22670972210E-10 -.34371747087E-10 0.25651818620E-11 -.18218013967E-10 -.30978950384E-10
 -.63180955116E-11 -.72006738612E-10 0.69610890107E-11 -.13201075748E-09 0.33996774454E-10
 -.18014663016E-09 0.12133579778E-09 -.22856724647E-09 0.40614645021E-09 -.52252671628E-09
 -.25652330958E-09 -.15822045985E-08 -.47668294140E-09 -.27197505637E-08 0.76402739133E-10
 -.21199726812E-09 0.36417662621E-08 0.65517712284E-09 -.76756347807E-08 0.66358876751E-08
 -.13226280075E-08 -.73126117501E-08 0.31216024544E-08 0.49094542701E-08 0.26593684063E-08
 -.82113963260E-09 -.16440999587E-08 -.15324043926E-08 -.55247632873E-09 0.65403903332E-09
 0.16412468947E-09 -.18217331480E-10 -.72113168595E-10 0.66460338974E-10 -.82584136360E-10
 0.90673317289E-10 -.50305679266E-10 0.10938824752E-09 -.27316249986E-10 0.98629797742E-10
 -.28883386448E-10 0.59617459045E-10 -.43292711280E-10 -.17866537065E-10 0.99139356698E-11
 0.13558371292E-10 -.18660100930E-10 0.17561937715E-10 -.74357129292E-10 0.18489949932E-10
 -.13713146649E-09 0.43912562269E-10 -.18018074523E-09 0.12139376852E-09 -.21988826628E-09
 0.24522119076E-09 -.45024313826E-09 0.61669841163E-09 0.20307374819E-09 0.16526603061E-08
 0.37056051558E-09 0.28836084186E-08 -.28400450227E-10 0.36301770752E-09 -.37347601206E-08
 -.11352070493E-08 0.86589647645E-08 -.68926141302E-08 0.12205335225E-08 0.84770958958E-08
 -.32542426854E-08 -.63313692791E-08 -.32351067680E-08 0.54439509963E-09 0.15794255937E-08
 0.16413514315E-08 0.45499789717E-09 -.80327414685E-09 -.21559681741E-09 0.41118356814E-10
 0.39972644027E-10 -.72069574760E-10 0.56806051200E-10 -.66544910517E-10 0.70791823948E-10
 -.47518353138E-10 0.64498251552E-10 -.39284614387E-10 0.39214309478E-10 -.41312117900E-10
 0.12735467786E-10 -.41181296114E-11 0.78577597907E-10 -.16457237602E-10 0.79634742082E-10
 -.85738035249E-10 0.59031529544E-10 -.15821657444E-09 0.77133937986E-10 -.19531732897E-09
 0.15328653256E-09 -.22852098535E-09 0.24519232441E-09 -.32236506322E-09 0.51047365267E-09
 -.72517031543E-09 -.13762473933E-09 -.17714302522E-08 -.24758384032E-09 -.30662871014E-08
 0.37260066800E-11 -.49993232237E-09 0.38485214893E-08 0.16468556499E-08 -.10147790835E-07
 0.68766035068E-08 -.16899154355E-08 -.10286663211E-07 0.42031185966E-08 0.90104993647E-08
 0.26933109848E-08 -.24618866340E-09 -.13974618553E-08 -.21449445251E-08 -.21523706489E-09
 0.91610127779E-09 0.40218829416E-09 -.11367290135E-09 0.41127374751E-10 -.18108129537E-10
 -.20981386920E-10 -.52830334534E-11 -.22299057452E-10 -.42353823576E-11 -.16773491789E-10
 -.15062917953E-10 -.95907410444E-11 -.24908235993E-10 0.26930141540E-10 0.25197669701E-09
 -.13056961158E-09 0.26596335049E-09 -.20571228689E-09 0.22840244991E-09 -.29816847961E-09
 0.23641269842E-09 -.33693110974E-09 0.31842752600E-09 -.36087632285E-09 0.40614013186E-09
 -.45024429521E-09 0.51045286162E-09 -.73500460958E-09 0.96269377421E-09 -.12674083360E-09
 0.20063283574E-08 -.98542331626E-10 0.34086506478E-08 -.16354769885E-09 0.66626538064E-09
 -.43020673460E-08 -.19608977385E-08 0.12725424703E-07 -.55914006519E-08 0.17752807206E-08
 0.86131128389E-08 -.11422921242E-07 -.89152636978E-08 0.15699555688E-08 -.52759882745E-08
 0.29572175349E-08 0.22888990964E-08 -.93736439943E-10 -.88840821356E-09 -.58213588006E-09
 0.40211417582E-09 -.21559514202E-09 0.16416307009E-09 -.18411049001E-09 0.12538372785E-09
 -.17268050739E-09 0.12279140312E-09 -.17634618600E-09 0.13149289782E-09 -.17726245203E-09
 0.17683246142E-09 -.14018735708E-09 0.86026069173E-10 0.13120187197E-09 -.39775464595E-10
 0.15356748338E-09 -.20770532996E-09 0.19996413800E-09 -.31255867832E-09 0.33699860662E-09
 -.38020219301E-09 0.48311981669E-09 -.52254088988E-09 0.61670836529E-09 -.72520415497E-09
 0.96268920117E-09 -.13222956312E-08 0.41605709700E-09 -.24963195980E-08 0.54304219231E-09
 -.41083113309E-08 0.41235287325E-09 -.73360272265E-09 0.62879339781E-08 0.39177184024E-08
 -.12425228747E-07 0.12418094465E-07 0.16142811653E-07 0.55425463418E-08 0.55229303036E-08
 -.12829062102E-07 0.15547144533E-07 0.96412674953E-08 -.10568258695E-07 0.38490896729E-08
 -.31892619489E-08 0.40752325789E-08 -.88844027031E-09 0.91606002979E-09 -.80322256656E-09
 0.65407708611E-09 -.59516425840E-09 0.44316261163E-09 -.41982177201E-09 0.29126426890E-09
 -.28565962228E-09 0.17605375933E-09 -.14491983717E-09 0.12796904756E-09 0.24440207075E-10
 -.41179242652E-09 0.57581645595E-09 -.43335761252E-09 0.47327954990E-09 -.46733019619E-09
 0.40729632699E-09 -.40638324261E-09 0.40131333275E-09 -.31666216996E-09 0.32929370655E-09
 -.25656115587E-09 0.20307984054E-09 -.13759956321E-09 -.12673534034E-09 0.41605813113E-09
 0.40772992864E-09 0.15133358704E-08 0.20686417797E-09 0.32155017646E-08 0.15401215704E-08
 -.20354852760E-08 -.12621077314E-07 -.23284984428E-07 -.74938020358E-08 -.44325046976E-07
 -.23717717703E-07 0.34698584612E-07 0.39134575629E-07 -.29673299436E-07 -.33015422712E-07
 0.17262580436E-07 -.12494072200E-07 0.58003322596E-08 -.22667886142E-08 -.31892539931E-08
 -.93739035794E-10 -.21520856194E-09 0.45502490088E-09 -.55241836105E-09 0.51339947854E-09
 -.57945426990E-09 0.52399760539E-09 -.58097699670E-09 0.51860600993E-09 -.55517981961E-09
 0.55089267260E-09 -.47305526633E-09 0.59990247749E-09 -.11743310577E-08 0.13571422012E-08
 -.12479319199E-08 0.13228684937E-08 -.13394702140E-08 0.13585647207E-08 -.13703613197E-08
 0.14534476777E-08 -.14452988604E-08 0.15255739721E-08 -.15822243989E-08 0.16526329325E-08
 -.17714233229E-08 0.20063337354E-08 -.24962982619E-08 0.15133364575E-08 -.37842936919E-08
 0.20611393069E-08 -.53291638938E-08 -.48460336404E-08 -.10358589158E-07 0.47050374595E-08
 0.12834058580E-07 -.26034414664E-07 -.20278728394E-07 -.37141520706E-07 -.32715453069E-07
 0.40600484044E-07 0.14127291288E-07 -.12164884239E-07 0.44050176562E-07 -.83358857837E-08
 0.61098110720E-08 0.58002173060E-08 0.38490914900E-08 0.22888325694E-08 -.21449490607E-08
 0.16413151956E-08 -.15323777964E-08 0.13678520543E-08 -.13743747647E-08 0.12694289442E-08
 -.13137289225E-08 0.12344710859E-08 -.12638440988E-08 0.12725966292E-08 -.11990429225E-08
 0.13399221252E-08 -.94514849424E-09 0.10727799203E-08 -.90108716308E-09 0.92918275629E-09
 -.85082706191E-09 0.82573306463E-09 -.73806705267E-09 0.71692188250E-09 -.63283717034E-09
 0.55709288695E-09 -.47670610613E-09 0.37051513367E-09 -.24761245627E-09 -.98559627842E-10
 0.54300181563E-09 0.20685817065E-09 0.20611393707E-08 -.43290270854E-09 -.32258422159E-08
 0.32431419606E-08 0.25909115417E-07 0.39256879754E-07 0.25510677367E-07 0.53948152431E-07
 -.39708322436E-07 -.87881646738E-07 0.46449249724E-08 0.88032575729E-07 -.97358267837E-08
 -.78288767802E-07 0.10107878035E-07 -.36673641179E-07 -.83357891388E-08 -.12494105756E-07
 -.10568253830E-07 0.29571513055E-08 -.13975087034E-08 0.15793780728E-08 -.16440893445E-08
 0.14773718470E-08 -.14932720130E-08 0.13337542406E-08 -.13637251139E-08 0.12320137504E-08
 -.12286271546E-08 0.11809569446E-08 -.10750034338E-08 0.11575390113E-08 -.17035416352E-08
 0.19509461246E-08 -.18916180214E-08 0.20571393349E-08 -.20873473486E-08 0.22036425565E-08
 -.22708868250E-08 0.23691879382E-08 -.24891753189E-08 0.25886407190E-08 -.27197734567E-08
 0.28835614610E-08 -.30663088524E-08 0.34086537503E-08 -.41083391736E-08 0.32154711067E-08
 -.53291966799E-08 -.32257960583E-08 -.51404311228E-10 0.37196174042E-07 0.41130976559E-07
 0.53531248843E-07 0.87745299374E-07 0.10127235717E-07 -.21318269483E-07 -.33613067663E-07
 -.44887725981E-07 0.32419951612E-07 -.29906785048E-07 -.30280002949E-08 0.89288328176E-07
 0.10107833751E-07 0.44050184667E-07 0.17262519936E-07 0.96413773510E-08 -.52760470819E-08
 -.24626274416E-09 0.54432321921E-09 -.82115117778E-09 0.86288948702E-09 -.11176795116E-08
 0.11231597437E-08 -.13349781677E-08 0.13455553996E-08 -.14942777354E-08 0.15661128060E-08
 -.15936170592E-08 0.17964278891E-08 0.78898040199E-09 -.52681649558E-09 0.57941208203E-09
 -.41146769873E-09 0.38956178572E-09 -.30490436710E-09 0.23644391385E-09 -.21195495666E-09
 0.12957074673E-09 -.10046868536E-09 0.76394410203E-10 -.28407581179E-10 0.37543000213E-11
 -.16354694621E-09 0.41232714374E-09 0.15400957406E-08 -.48461231322E-08 0.32431427357E-08
 0.37196120063E-07 0.45810708516E-07 0.48138987166E-07 0.92448387334E-07 0.34662959753E-07
 0.83280604080E-07 -.33005734368E-07 -.15351528759E-06 0.67729146735E-08 0.15094219297E-06
 -.77683175448E-08 -.67040146767E-08 -.30283540120E-08 -.78288843963E-07 -.12164979434E-07
 -.33015544307E-07 0.15547081213E-07 0.15700108514E-08 0.26933423678E-08 -.32351084222E-08
 0.26594257525E-08 -.23887392722E-08 0.19471504126E-08 -.17965657705E-08 0.14811452843E-08
 -.13743968476E-08 0.11591079982E-08 -.10258224196E-08 0.96221589793E-09 -.71991390304E-09
 0.13868190310E-08 -.10581321198E-08 0.10220261637E-08 -.79058910106E-09 0.67413270622E-09
 -.53275776878E-09 0.35220832342E-09 -.25479400791E-09 0.69495415052E-10 0.67398095539E-10
 -.21199655972E-09 0.36303825094E-09 -.49984332641E-09 0.66625913523E-09 -.73367301128E-09
 -.20355138028E-08 -.10358614644E-07 0.25909107355E-07 0.41130978186E-07 0.48139014618E-07
 0.87615997624E-07 0.48872744712E-07 0.13067214866E-06 -.92669796281E-08 -.16332536390E-06
 -.28360496174E-08 0.14173791385E-06 0.11774403674E-07 -.18134372404E-06 -.77679187527E-08
 -.29906703114E-07 -.97354542483E-08 0.14127360864E-07 -.29673141637E-07 -.12829065996E-07
 -.89152137321E-08 0.90105235645E-08 -.63313390824E-08 0.49094869803E-08 -.42016519609E-08
 0.35149206692E-08 -.31289646930E-08 0.26935282268E-08 -.24251131321E-08 0.21256318910E-08
 -.18697580546E-08 0.17331886759E-08 -.14017815506E-08 0.33892971872E-08 -.32742906078E-08
 0.33939840994E-08 -.33624557187E-08 0.33971291910E-08 -.34477702026E-08 0.34290957026E-08
 -.35152239705E-08 0.35165940972E-08 -.35853400900E-08 0.36417989046E-08 -.37347379323E-08
 0.38485948881E-08 -.43020925292E-08 0.62879049334E-08 -.12621106178E-07 0.47049907047E-08
 0.39256826002E-07 0.53531286548E-07 0.92448370306E-07 0.48872724978E-07 0.13914977481E-06
 0.57452922420E-08 -.11879161832E-06 -.31308786674E-08 0.19650883587E-07 0.10481159052E-07
 -.11957430956E-06 0.11775100006E-07 0.15094218142E-06 0.32419909868E-07 0.88032588552E-07
 0.40600367339E-07 0.39134645947E-07 0.55229260106E-08 -.11422892459E-07 0.42031039679E-08
 -.32542311678E-08 0.31216182655E-08 -.31857765935E-08 0.31563660920E-08 -.31869622017E-08
 0.32004707493E-08 -.32196645902E-08 0.32482444982E-08 -.32252342547E-08 0.33332409060E-08
 -.32214979170E-08 -.25291120461E-08 0.23416757256E-08 -.19827956792E-08 0.17288255508E-08
 -.14395332710E-08 0.11129921374E-08 -.84717890140E-09 0.47787814114E-09 -.15834780952E-09
 -.23803566123E-09 0.65518567100E-09 -.11352182914E-08 0.16468926088E-08 -.19608843400E-08
 0.39177114952E-08 -.23284979580E-07 0.12834086287E-07 0.25510663662E-07 0.87745292018E-07
 0.34662938270E-07 0.13067210447E-06 0.57453046765E-08 -.93091266251E-07 -.10894950719E-07
 -.75942921285E-07 0.63687366492E-08 0.40424481540E-07 0.10481443269E-07 0.14173789253E-06
 0.67723187058E-08 -.44887725981E-07 0.46446714252E-08 -.32715600479E-07 0.34698533724E-07
 0.55425667558E-08 0.86132018584E-08 -.10286615545E-07 0.84771424747E-08 -.73126193643E-08
 0.64347186838E-08 -.57317459943E-08 0.52057330283E-08 -.46786369486E-08 0.42830722191E-08
 -.38649915150E-08 0.35633179146E-08 -.31493935588E-08 0.29484700395E-08 -.35831702038E-08
 0.39147953514E-08 -.41258932702E-08 0.44378612716E-08 -.47412503713E-08 0.50606785749E-08
 -.54562751213E-08 0.58643620974E-08 -.63576880718E-08 0.69563414703E-08 -.76756370415E-08
 0.86589662795E-08 -.10147699569E-07 0.12725415491E-07 -.12425140978E-07 -.74937588788E-08
 -.26034366597E-07 0.53948131157E-07 0.10127250094E-07 0.83280642715E-07 -.92669143470E-08
 -.11879158635E-06 -.10894979141E-07 -.10657061011E-06 0.11399606592E-07 0.13504995877E-06
 0.63686229623E-08 0.19650940430E-07 -.28365150229E-08 -.15351527383E-06 -.33612941319E-07
 -.87881715724E-07 -.37141419856E-07 -.23717847840E-07 0.16142858408E-07 0.17752310659E-08
 -.16897573036E-08 0.12205110711E-08 -.13225808938E-08 0.15552510078E-08 -.17338453407E-08
 0.20267795876E-08 -.22088920157E-08 0.24733994024E-08 -.26716270417E-08 0.29436811427E-08
 -.31100866457E-08 0.34296640699E-08 0.55389639542E-08 -.54754863396E-08 0.55605156564E-08
 -.55617745528E-08 0.56451606481E-08 -.57200885695E-08 0.58396516352E-08 -.59555706324E-08
 0.61694042316E-08 -.63449622750E-08 0.66359916713E-08 -.68927081441E-08 0.68760913940E-08
 -.55914774955E-08 0.12418101303E-07 -.44325155284E-07 -.20278606501E-07 -.39708224847E-07
 -.21318293908E-07 -.33005780553E-07 -.16332558417E-06 -.31308218240E-08 -.75943034972E-07
 0.11399151845E-07 0.15728073777E-06 0.11398697097E-07 -.75942921285E-07 -.31310491977E-08
 -.16332564101E-06 -.33005249644E-07 -.21318230459E-07 -.39707923546E-07 -.20278588440E-07
 -.44325108509E-07 0.12418021513E-07 -.55914147518E-08 0.68760653527E-08 -.68927082026E-08
 0.66359735388E-08 -.63449477309E-08 0.61693888667E-08 -.59555711035E-08 0.58396425452E-08
 -.57200756137E-08 0.56451590610E-08 -.55617681170E-08 0.55605059741E-08 -.54754905470E-08
 -.35831905812E-08 0.34296750188E-08 -.31100990872E-08 0.29437025226E-08 -.26716537208E-08
 0.24734148468E-08 -.22089184446E-08 0.20268178907E-08 -.17338743239E-08 0.15552847997E-08
 -.13226228491E-08 0.12205693387E-08 -.16897985098E-08 0.17752489285E-08 0.16142833144E-07
 -.23717679005E-07 -.37141469636E-07 -.87881599317E-07 -.33613035244E-07 -.15351521698E-06
 -.28359998794E-08 0.19650940430E-07 0.63688503360E-08 0.13504995877E-06 0.11399151845E-07
 -.10657061011E-06 -.10894893876E-07 -.11879161477E-06 -.92662366669E-08 0.83280724428E-07
 0.10127505515E-07 0.53948249909E-07 -.26034269674E-07 -.74937295567E-08 -.12425182928E-07
 0.12725452875E-07 -.10147715375E-07 0.86589695968E-08 -.76756504180E-08 0.69563570882E-08
 -.63577139268E-08 0.58643668230E-08 -.54562919630E-08 0.50606933212E-08 -.47412614655E-08
 0.44378823387E-08 -.41259162916E-08 0.39147956945E-08 -.25290929255E-08 0.29484384519E-08
 -.31493706925E-08 0.35632989927E-08 -.38649780402E-08 0.42830473996E-08 -.46786201961E-08
 0.52057285336E-08 -.57317206921E-08 0.64347047420E-08 -.73126185644E-08 0.84771378179E-08
 -.10286596726E-07 0.86131658837E-08 0.55425651399E-08 0.34698638336E-07 -.32715466801E-07
 0.46449611935E-08 -.44887620065E-07 0.67729022390E-08 0.14173795293E-06 0.10481187473E-07
 0.40424367853E-07 0.63686229623E-08 -.75942807598E-07 -.10894950719E-07 -.93091287567E-07
 0.57459397240E-08 0.13067213822E-06 0.34662991172E-07 0.87745406108E-07 0.25510693274E-07
 0.12834226804E-07 -.23285004488E-07 0.39177271573E-08 -.19609117404E-08 0.16469238977E-08
 -.11352579026E-08 0.65522248180E-09 -.23806119906E-09 -.15833315276E-09 0.47784729531E-09
 -.84715617196E-09 0.11129666039E-08 -.14395078961E-08 0.17288069696E-08 -.19827796586E-08
 0.23416429709E-08 0.33892991618E-08 -.32215082265E-08 0.33332423483E-08 -.32252404807E-08
 0.32482473457E-08 -.32196660388E-08 0.32004811114E-08 -.31869636788E-08 0.31563963170E-08
 -.31857930559E-08 0.31216183169E-08 -.32542387130E-08 0.42031401642E-08 -.11422935190E-07
 0.55229006778E-08 0.39134551672E-07 0.40600494230E-07 0.88032591800E-07 0.32419994245E-07
 0.15094216277E-06 0.11774424991E-07 -.11957433799E-06 0.10481358004E-07 0.19650883587E-07
 -.31311060411E-08 -.11879168227E-06 0.57459201841E-08 0.13914981656E-06 0.48872681235E-07
 0.92448422778E-07 0.53531179791E-07 0.39256925851E-07 0.47049883381E-08 -.12621070163E-07
 0.62878622029E-08 -.43020606090E-08 0.38485762877E-08 -.37347311054E-08 0.36417940767E-08
 -.35853291991E-08 0.35165707678E-08 -.35152170605E-08 0.34290901842E-08 -.34477592808E-08
 0.33971238642E-08 -.33624532823E-08 0.33939846160E-08 -.32742815413E-08 0.13868153382E-08
 -.14017855295E-08 0.17331826362E-08 -.18697546355E-08 0.21256240463E-08 -.24250994113E-08
 0.26935248101E-08 -.31289513453E-08 0.35149305236E-08 -.42016500079E-08 0.49094683794E-08
 -.63313334762E-08 0.90105206032E-08 -.89151934148E-08 -.12829055639E-07 -.29673296844E-07
 0.14127238213E-07 -.97358325846E-08 -.29906808141E-07 -.77683037780E-08 -.18134370094E-06
 0.11775085795E-07 0.14173788898E-06 -.28365789717E-08 -.16332543495E-06 -.92662792994E-08
 0.13067216997E-06 0.48872711350E-07 0.87615977092E-07 0.48138871592E-07 0.41131008031E-07
 0.25909116584E-07 -.10358567546E-07 -.20355254830E-08 -.73367716467E-09 0.66625983185E-09
 -.49984078672E-09 0.36302563149E-09 -.21198879694E-09 0.67399674417E-10 0.69476516121E-10
 -.25478705619E-09 0.35220579628E-09 -.53274588441E-09 0.67413484123E-09 -.79058610427E-09
 0.10220231472E-08 -.10580989901E-08 0.78897313732E-09 -.71993112576E-09 0.96221094038E-09
 -.10258153500E-08 0.11590923286E-08 -.13743854017E-08 0.14811365855E-08 -.17965447228E-08
 0.19471428582E-08 -.23887292476E-08 0.26594035611E-08 -.32350991560E-08 0.26933220536E-08
 0.15700165744E-08 0.15547132143E-07 -.33015421915E-07 -.12164889540E-07 -.78288757227E-07
 -.30280199459E-08 -.67039578333E-08 -.77679458421E-08 0.15094216721E-06 0.67723435748E-08
 -.15351526494E-06 -.33005267852E-07 0.83280699004E-07 0.34663009629E-07 0.92448427323E-07
 0.48138832096E-07 0.45810733296E-07 0.37196083258E-07 0.32431903734E-08 -.48461417585E-08
 0.15401081775E-08 0.41230329549E-09 -.16353236126E-09 0.37444734515E-11 -.28393935999E-10
 0.76389768751E-10 -.10045992206E-09 0.12955319509E-09 -.21195301408E-09 0.23643650260E-09
 -.30489265991E-09 0.38956942146E-09 -.41146163458E-09 0.57939727762E-09 -.52677094296E-09
 -.17035474530E-08 0.17964137872E-08 -.15936176204E-08 0.15661201396E-08 -.14943001046E-08
 0.13455640684E-08 -.13349877622E-08 0.11231809048E-08 -.11176950014E-08 0.86290147317E-09
 -.82117144190E-09 0.54432754003E-09 -.24627773589E-09 -.52760186375E-08 0.96412960050E-08
 0.17262553338E-07 0.44050151776E-07 0.10107915338E-07 0.89288310856E-07 -.30283137109E-08
 -.29906771060E-07 0.32419868790E-07 -.44887744410E-07 -.33613004380E-07 -.21318235233E-07
 0.10127526096E-07 0.87745389968E-07 0.53531135346E-07 0.41131005354E-07 0.37196135071E-07
 -.51351401104E-10 -.32257995174E-08 -.53291868346E-08 0.32154700537E-08 -.41083466412E-08
 0.34086504719E-08 -.30663078490E-08 0.28835904349E-08 -.27197772999E-08 0.25886428718E-08
 -.24891769334E-08 0.23691706339E-08 -.22708897744E-08 0.22036468097E-08 -.20873412746E-08
 0.20571417642E-08 -.18916344175E-08 0.19509842028E-08 -.94514882528E-09 0.11575331339E-08
 -.10749956610E-08 0.11809598146E-08 -.12286423613E-08 0.12320158826E-08 -.13637281985E-08
 0.13337748391E-08 -.14932759744E-08 0.14773770290E-08 -.16440993811E-08 0.15793768735E-08
 -.13975236324E-08 0.29571922011E-08 -.10568262588E-07 -.12494099153E-07 -.83359033669E-08
 -.36673649402E-07 0.10107803372E-07 -.78288802552E-07 -.97354874717E-08 0.88032599765E-07
 0.46446659852E-08 -.87881730573E-07 -.39707869236E-07 0.53948159721E-07 0.25510673882E-07
 0.39256971808E-07 0.25909122913E-07 0.32431937294E-08 -.32258414309E-08 -.43291615500E-09
 0.20611376572E-08 0.20685680859E-09 0.54300778117E-09 -.98568851231E-10 -.24761086138E-09
 0.37054079264E-09 -.47669994330E-09 0.55709222539E-09 -.63283322046E-09 0.71690199817E-09
 -.73806595666E-09 0.82573510854E-09 -.85082286983E-09 0.92918069619E-09 -.90108764384E-09
 0.10727821312E-08 -.11743333164E-08 0.13399503201E-08 -.11990398098E-08 0.12726022343E-08
 -.12638582002E-08 0.12344752317E-08 -.13137330187E-08 0.12694428147E-08 -.13743753517E-08
 0.13678566713E-08 -.15323899484E-08 0.16413177888E-08 -.21449577758E-08 0.22888367989E-08
 0.38490722001E-08 0.58002788453E-08 0.61098324455E-08 -.83357607795E-08 0.44050219368E-07
 -.12164945870E-07 0.14127344204E-07 0.40600337557E-07 -.32715544079E-07 -.37141366375E-07
 -.20278738322E-07 -.26034312567E-07 0.12834164337E-07 0.47050238256E-08 -.10358539624E-07
 -.48460535792E-08 -.53291551617E-08 0.20611259745E-08 -.37842911774E-08 0.15133353815E-08
 -.24962936197E-08 0.20063303717E-08 -.17714225093E-08 0.16526330289E-08 -.15822141476E-08
 0.15255748901E-08 -.14453031196E-08 0.14534301702E-08 -.13703622980E-08 0.13585758548E-08
 -.13394644687E-08 0.13228698943E-08 -.12479344362E-08 0.13571504889E-08 -.41179243910E-09
 0.59991494531E-09 -.47304845153E-09 0.55089559122E-09 -.55519025136E-09 0.51860555085E-09
 -.58097839745E-09 0.52401070157E-09 -.57945395830E-09 0.51340112509E-09 -.55243239527E-09
 0.45502911133E-09 -.21521440635E-09 -.93725676851E-10 -.31892772265E-08 -.22667992336E-08
 0.58002613693E-08 -.12494097893E-07 0.17262524323E-07 -.33015510841E-07 -.29673175297E-07
 0.39134656262E-07 0.34698512166E-07 -.23717849722E-07 -.44325023230E-07 -.74938645685E-08
 -.23285026331E-07 -.12621045980E-07 -.20354898730E-08 0.15401289614E-08 0.32154982046E-08
 0.20685474553E-09 0.15133328317E-08 0.40772733053E-09 0.41605431272E-09 -.12673128088E-09
 -.13759848195E-09 0.20307189141E-09 -.25655089822E-09 0.32929306172E-09 -.31666869561E-09
 0.40130401365E-09 -.40638250712E-09 0.40730758274E-09 -.46731810995E-09 0.47327936749E-09