 vasp.5.4.4.18Apr17-6-g9f103f2a35 (build Nov 08 2022 17:27:33) complex          
  
 executed on             LinuxIFC date 2022.12.09  15:53:32
 running on   16 total cores
 distrk:  each k-point on   16 cores,    1 groups
 distr:  one band on NCORES_PER_BAND=   4 cores,    4 groups


--------------------------------------------------------------------------------------------------------


 INCAR:
 POTCAR:    PAW_PBE Li_sv 10Sep2004               
 POTCAR:    PAW_PBE F 08Apr2002                   
 POTCAR:    PAW_PBE Li_sv 10Sep2004               
   VRHFIN =Li: 1s2s2p                                                           
   LEXCH  = PE                                                                  
   EATOM  =   202.7858 eV,   14.9043 Ry                                         
                                                                                
   TITEL  = PAW_PBE Li_sv 10Sep2004                                             
   LULTRA =        F    use ultrasoft PP ?                                      
   IUNSCR =        0    unscreen: 0-lin 1-nonlin 2-no                           
   RPACOR =    0.000    partial core radius                                     
   POMASS =    7.010; ZVAL   =    3.000    mass and valenz                      
   RCORE  =    1.700    outmost cutoff radius                                   
   RWIGS  =    2.050; RWIGS  =    1.085    wigner-seitz radius (au A)           
   ENMAX  =  499.034; ENMIN  =  374.276 eV                                      
   ICORE  =        2    local potential                                         
   LCOR   =        T    correct aug charges                                     
   LPAW   =        T    paw PP                                                  
   EAUG   =  628.945                                                            
   RMAX   =    1.732    core radius for proj-oper                               
   RAUG   =    1.300    factor for augmentation sphere                          
   RDEP   =    1.728    radius for radial grids                                 
   RDEPT  =    1.329    core radius for aug-charge                              
                                                                                
   Atomic configuration                                                         
    4 entries                                                                   
     n  l   j            E        occ.                                          
     1  0  0.50       -51.8549   2.0000                                         
     2  0  0.50        -2.8742   1.0000                                         
     2  1  0.50        -1.3606   0.0000                                         
     3  2  1.50        -1.3606   0.0000                                         
   Description                                                                  
     l       E           TYP  RCUT    TYP  RCUT                                 
     0    -51.8548813     23  1.400                                             
     0     -2.8742052     23  1.700                                             
     1     -1.3605826     23  1.400                                             
     2     -1.3605826     23  1.400                                             
  local pseudopotential read in
  atomic valenz-charges read in
  non local Contribution for L=           0  read in
    real space projection operators read in
  non local Contribution for L=           0  read in
    real space projection operators read in
  non local Contribution for L=           1  read in
    real space projection operators read in
    PAW grid and wavefunctions read in
 
   number of l-projection  operators is LMAX  =           3
   number of lm-projection operators is LMMAX =           5
 
 POTCAR:    PAW_PBE F 08Apr2002                   
   VRHFIN =F: s2p5                                                              
   LEXCH  = PE                                                                  
   EATOM  =   659.6475 eV,   48.4827 Ry                                         
                                                                                
   TITEL  = PAW_PBE F 08Apr2002                                                 
   LULTRA =        F    use ultrasoft PP ?                                      
   IUNSCR =        1    unscreen: 0-lin 1-nonlin 2-no                           
   RPACOR =    1.200    partial core radius                                     
   POMASS =   18.998; ZVAL   =    7.000    mass and valenz                      
   RCORE  =    1.520    outmost cutoff radius                                   
   RWIGS  =    1.500; RWIGS  =    0.794    wigner-seitz radius (au A)           
   ENMAX  =  400.000; ENMIN  =  300.000 eV                                      
   ICORE  =        2    local potential                                         
   LCOR   =        T    correct aug charges                                     
   LPAW   =        T    paw PP                                                  
   EAUG   =  613.614                                                            
   RMAX   =    1.555    core radius for proj-oper                               
   RAUG   =    1.300    factor for augmentation sphere                          
   RDEP   =    1.539    radius for radial grids                                 
   RDEPT  =    1.299    core radius for aug-charge                              
                                                                                
   Atomic configuration                                                         
    4 entries                                                                   
     n  l   j            E        occ.                                          
     1  0  0.50      -663.3661   2.0000                                         
     2  0  0.50       -29.8995   2.0000                                         
     2  1  0.50       -11.1114   5.0000                                         
     3  2  1.50       -10.8847   0.0000                                         
   Description                                                                  
     l       E           TYP  RCUT    TYP  RCUT                                 
     0    -29.8995018     23  1.200                                             
     0     -9.5240782     23  1.200                                             
     1    -11.1113914     23  1.520                                             
     1      1.3605826     23  1.520                                             
     2    -10.8846608      7  1.500                                             
  local pseudopotential read in
  partial core-charges read in
  partial kinetic energy density read in
  atomic valenz-charges read in
  non local Contribution for L=           0  read in
    real space projection operators read in
  non local Contribution for L=           0  read in
    real space projection operators read in
  non local Contribution for L=           1  read in
    real space projection operators read in
  non local Contribution for L=           1  read in
    real space projection operators read in
    PAW grid and wavefunctions read in
 
   number of l-projection  operators is LMAX  =           4
   number of lm-projection operators is LMMAX =           8
 
  PAW_PBE Li_sv 10Sep2004               :
 energy of atom  1       EATOM= -202.7858
 kinetic energy error for atom=    0.0130 (will be added to EATOM!!)
  PAW_PBE F 08Apr2002                   :
 energy of atom  2       EATOM= -659.6475
 kinetic energy error for atom=    0.0323 (will be added to EATOM!!)
 
 
 POSCAR: Li1 F1                                  
  positions in direct lattice
  velocities in cartesian coordinates
 exchange correlation table for  LEXCH =        8
   RHO(1)=    0.500       N(1)  =     2000
   RHO(2)=  100.500       N(2)  =     4000

 VTST: version 3.2, (02/03/18)

 CHAIN: initializing optimizer
 
 OPT: Using VASP Conjugate-Gradient optimizer
 CHAIN: Read ICHAIN            0
 
 POSCAR: Li1 F1                                  
  positions in direct lattice
  velocities in cartesian coordinates
 


--------------------------------------------------------------------------------------------------------


 ion  position               nearest neighbor table
   1  0.000  0.000  0.000-   2 2.03   2 2.03   2 2.03   2 2.03   2 2.03   2 2.03
   2  0.500  0.500  0.500-   1 2.03   1 2.03   1 2.03   1 2.03   1 2.03   1 2.03
 

IMPORTANT INFORMATION: All symmetrisations will be switched off!
NOSYMM: (Re-)initialisation of all symmetry stuff for point group C_1.

 
 
 KPOINTS: Fully automatic kpoint scheme           

Automatic generation of k-mesh.
 generate k-points for:   11   11   11
Space group operators:
 irot       det(A)        alpha          n_x          n_y          n_z        tau_x        tau_y        tau_z
    1     1.000000     0.000000     1.000000     0.000000     0.000000     0.000000     0.000000     0.000000
 
 Subroutine IBZKPT returns following result:
 ===========================================
 
 Found   1331 irreducible k-points:
 
 Following reciprocal coordinates:
            Coordinates               Weight
  0.000000  0.000000  0.000000      1.000000
  0.090909  0.000000 -0.000000      1.000000
  0.181818  0.000000 -0.000000      1.000000
  0.272727  0.000000 -0.000000      1.000000
  0.363636  0.000000 -0.000000      1.000000
  0.454545  0.000000 -0.000000      1.000000
 -0.454545  0.000000  0.000000      1.000000
 -0.363636  0.000000  0.000000      1.000000
 -0.272727  0.000000  0.000000      1.000000
 -0.181818  0.000000  0.000000      1.000000
 -0.090909  0.000000  0.000000      1.000000
  0.000000  0.090909  0.000000      1.000000
  0.090909  0.090909  0.000000      1.000000
  0.181818  0.090909 -0.000000      1.000000
  0.272727  0.090909  0.000000      1.000000
  0.363636  0.090909  0.000000      1.000000
  0.454545  0.090909  0.000000      1.000000
 -0.454545  0.090909 -0.000000      1.000000
 -0.363636  0.090909  0.000000      1.000000
 -0.272727  0.090909 -0.000000      1.000000
 -0.181818  0.090909  0.000000      1.000000
 -0.090909  0.090909  0.000000      1.000000
  0.000000  0.181818  0.000000      1.000000
  0.090909  0.181818  0.000000      1.000000
  0.181818  0.181818  0.000000      1.000000
  0.272727  0.181818  0.000000      1.000000
  0.363636  0.181818 -0.000000      1.000000
  0.454545  0.181818 -0.000000      1.000000
 -0.454545  0.181818  0.000000      1.000000
 -0.363636  0.181818  0.000000      1.000000
 -0.272727  0.181818 -0.000000      1.000000
 -0.181818  0.181818  0.000000      1.000000
 -0.090909  0.181818  0.000000      1.000000
  0.000000  0.272727  0.000000      1.000000
  0.090909  0.272727  0.000000      1.000000
  0.181818  0.272727  0.000000      1.000000
  0.272727  0.272727  0.000000      1.000000
  0.363636  0.272727  0.000000      1.000000
  0.454545  0.272727  0.000000      1.000000
 -0.454545  0.272727 -0.000000      1.000000
 -0.363636  0.272727 -0.000000      1.000000
 -0.272727  0.272727 -0.000000      1.000000
 -0.181818  0.272727  0.000000      1.000000
 -0.090909  0.272727  0.000000      1.000000
  0.000000  0.363636  0.000000      1.000000
  0.090909  0.363636  0.000000      1.000000
  0.181818  0.363636  0.000000      1.000000
  0.272727  0.363636  0.000000      1.000000
  0.363636  0.363636  0.000000      1.000000
  0.454545  0.363636  0.000000      1.000000
 -0.454545  0.363636 -0.000000      1.000000
 -0.363636  0.363636  0.000000      1.000000
 -0.272727  0.363636 -0.000000      1.000000
 -0.181818  0.363636  0.000000      1.000000
 -0.090909  0.363636 -0.000000      1.000000
  0.000000  0.454545  0.000000      1.000000
  0.090909  0.454545  0.000000      1.000000
  0.181818  0.454545  0.000000      1.000000
  0.272727  0.454545  0.000000      1.000000
  0.363636  0.454545  0.000000      1.000000
  0.454545  0.454545  0.000000      1.000000
 -0.454545  0.454545  0.000000      1.000000
 -0.363636  0.454545  0.000000      1.000000
 -0.272727  0.454545  0.000000      1.000000
 -0.181818  0.454545  0.000000      1.000000
 -0.090909  0.454545  0.000000      1.000000
 -0.000000 -0.454545 -0.000000      1.000000
  0.090909 -0.454545 -0.000000      1.000000
  0.181818 -0.454545 -0.000000      1.000000
  0.272727 -0.454545 -0.000000      1.000000
  0.363636 -0.454545 -0.000000      1.000000
  0.454545 -0.454545 -0.000000      1.000000
 -0.454545 -0.454545 -0.000000      1.000000
 -0.363636 -0.454545 -0.000000      1.000000
 -0.272727 -0.454545 -0.000000      1.000000
 -0.181818 -0.454545 -0.000000      1.000000
 -0.090909 -0.454545 -0.000000      1.000000
 -0.000000 -0.363636 -0.000000      1.000000
  0.090909 -0.363636  0.000000      1.000000
  0.181818 -0.363636 -0.000000      1.000000
  0.272727 -0.363636  0.000000      1.000000
  0.363636 -0.363636 -0.000000      1.000000
  0.454545 -0.363636 -0.000000      1.000000
 -0.454545 -0.363636 -0.000000      1.000000
 -0.363636 -0.363636 -0.000000      1.000000
 -0.272727 -0.363636 -0.000000      1.000000
 -0.181818 -0.363636 -0.000000      1.000000
 -0.090909 -0.363636 -0.000000      1.000000
 -0.000000 -0.272727 -0.000000      1.000000
  0.090909 -0.272727 -0.000000      1.000000
  0.181818 -0.272727 -0.000000      1.000000
  0.272727 -0.272727  0.000000      1.000000
  0.363636 -0.272727  0.000000      1.000000
  0.454545 -0.272727 -0.000000      1.000000
 -0.454545 -0.272727 -0.000000      1.000000
 -0.363636 -0.272727 -0.000000      1.000000
 -0.272727 -0.272727 -0.000000      1.000000
 -0.181818 -0.272727 -0.000000      1.000000
 -0.090909 -0.272727 -0.000000      1.000000
 -0.000000 -0.181818 -0.000000      1.000000
  0.090909 -0.181818 -0.000000      1.000000
  0.181818 -0.181818 -0.000000      1.000000
  0.272727 -0.181818  0.000000      1.000000
  0.363636 -0.181818 -0.000000      1.000000
  0.454545 -0.181818 -0.000000      1.000000
 -0.454545 -0.181818 -0.000000      1.000000
 -0.363636 -0.181818  0.000000      1.000000
 -0.272727 -0.181818 -0.000000      1.000000
 -0.181818 -0.181818 -0.000000      1.000000
 -0.090909 -0.181818 -0.000000      1.000000
 -0.000000 -0.090909 -0.000000      1.000000
  0.090909 -0.090909 -0.000000      1.000000
  0.181818 -0.090909 -0.000000      1.000000
  0.272727 -0.090909  0.000000      1.000000
  0.363636 -0.090909 -0.000000      1.000000
  0.454545 -0.090909  0.000000      1.000000
 -0.454545 -0.090909 -0.000000      1.000000
 -0.363636 -0.090909 -0.000000      1.000000
 -0.272727 -0.090909 -0.000000      1.000000
 -0.181818 -0.090909  0.000000      1.000000
 -0.090909 -0.090909 -0.000000      1.000000
 -0.000000 -0.000000  0.090909      1.000000
  0.090909 -0.000000  0.090909      1.000000
  0.181818 -0.000000  0.090909      1.000000
  0.272727 -0.000000  0.090909      1.000000
  0.363636  0.000000  0.090909      1.000000
  0.454545  0.000000  0.090909      1.000000
 -0.454545  0.000000  0.090909      1.000000
 -0.363636  0.000000  0.090909      1.000000
 -0.272727  0.000000  0.090909      1.000000
 -0.181818  0.000000  0.090909      1.000000
 -0.090909 -0.000000  0.090909      1.000000
 -0.000000  0.090909  0.090909      1.000000
  0.090909  0.090909  0.090909      1.000000
  0.181818  0.090909  0.090909      1.000000
  0.272727  0.090909  0.090909      1.000000
  0.363636  0.090909  0.090909      1.000000
  0.454545  0.090909  0.090909      1.000000
 -0.454545  0.090909  0.090909      1.000000
 -0.363636  0.090909  0.090909      1.000000
 -0.272727  0.090909  0.090909      1.000000
 -0.181818  0.090909  0.090909      1.000000
 -0.090909  0.090909  0.090909      1.000000
  0.000000  0.181818  0.090909      1.000000
  0.090909  0.181818  0.090909      1.000000
  0.181818  0.181818  0.090909      1.000000
  0.272727  0.181818  0.090909      1.000000
  0.363636  0.181818  0.090909      1.000000
  0.454545  0.181818  0.090909      1.000000
 -0.454545  0.181818  0.090909      1.000000
 -0.363636  0.181818  0.090909      1.000000
 -0.272727  0.181818  0.090909      1.000000
 -0.181818  0.181818  0.090909      1.000000
 -0.090909  0.181818  0.090909      1.000000
  0.000000  0.272727  0.090909      1.000000
  0.090909  0.272727  0.090909      1.000000
  0.181818  0.272727  0.090909      1.000000
  0.272727  0.272727  0.090909      1.000000
  0.363636  0.272727  0.090909      1.000000
  0.454545  0.272727  0.090909      1.000000
 -0.454545  0.272727  0.090909      1.000000
 -0.363636  0.272727  0.090909      1.000000
 -0.272727  0.272727  0.090909      1.000000
 -0.181818  0.272727  0.090909      1.000000
 -0.090909  0.272727  0.090909      1.000000
  0.000000  0.363636  0.090909      1.000000
  0.090909  0.363636  0.090909      1.000000
  0.181818  0.363636  0.090909      1.000000
  0.272727  0.363636  0.090909      1.000000
  0.363636  0.363636  0.090909      1.000000
  0.454545  0.363636  0.090909      1.000000
 -0.454545  0.363636  0.090909      1.000000
 -0.363636  0.363636  0.090909      1.000000
 -0.272727  0.363636  0.090909      1.000000
 -0.181818  0.363636  0.090909      1.000000
 -0.090909  0.363636  0.090909      1.000000
  0.000000  0.454545  0.090909      1.000000
  0.090909  0.454545  0.090909      1.000000
  0.181818  0.454545  0.090909      1.000000
  0.272727  0.454545  0.090909      1.000000
  0.363636  0.454545  0.090909      1.000000
  0.454545  0.454545  0.090909      1.000000
 -0.454545  0.454545  0.090909      1.000000
 -0.363636  0.454545  0.090909      1.000000
 -0.272727  0.454545  0.090909      1.000000
 -0.181818  0.454545  0.090909      1.000000
 -0.090909  0.454545  0.090909      1.000000
 -0.000000 -0.454545  0.090909      1.000000
  0.090909 -0.454545  0.090909      1.000000
  0.181818 -0.454545  0.090909      1.000000
  0.272727 -0.454545  0.090909      1.000000
  0.363636 -0.454545  0.090909      1.000000
  0.454545 -0.454545  0.090909      1.000000
 -0.454545 -0.454545  0.090909      1.000000
 -0.363636 -0.454545  0.090909      1.000000
 -0.272727 -0.454545  0.090909      1.000000
 -0.181818 -0.454545  0.090909      1.000000
 -0.090909 -0.454545  0.090909      1.000000
  0.000000 -0.363636  0.090909      1.000000
  0.090909 -0.363636  0.090909      1.000000
  0.181818 -0.363636  0.090909      1.000000
  0.272727 -0.363636  0.090909      1.000000
  0.363636 -0.363636  0.090909      1.000000
  0.454545 -0.363636  0.090909      1.000000
 -0.454545 -0.363636  0.090909      1.000000
 -0.363636 -0.363636  0.090909      1.000000
 -0.272727 -0.363636  0.090909      1.000000
 -0.181818 -0.363636  0.090909      1.000000
 -0.090909 -0.363636  0.090909      1.000000
 -0.000000 -0.272727  0.090909      1.000000
  0.090909 -0.272727  0.090909      1.000000
  0.181818 -0.272727  0.090909      1.000000
  0.272727 -0.272727  0.090909      1.000000
  0.363636 -0.272727  0.090909      1.000000
  0.454545 -0.272727  0.090909      1.000000
 -0.454545 -0.272727  0.090909      1.000000
 -0.363636 -0.272727  0.090909      1.000000
 -0.272727 -0.272727  0.090909      1.000000
 -0.181818 -0.272727  0.090909      1.000000
 -0.090909 -0.272727  0.090909      1.000000
 -0.000000 -0.181818  0.090909      1.000000
  0.090909 -0.181818  0.090909      1.000000
  0.181818 -0.181818  0.090909      1.000000
  0.272727 -0.181818  0.090909      1.000000
  0.363636 -0.181818  0.090909      1.000000
  0.454545 -0.181818  0.090909      1.000000
 -0.454545 -0.181818  0.090909      1.000000
 -0.363636 -0.181818  0.090909      1.000000
 -0.272727 -0.181818  0.090909      1.000000
 -0.181818 -0.181818  0.090909      1.000000
 -0.090909 -0.181818  0.090909      1.000000
 -0.000000 -0.090909  0.090909      1.000000
  0.090909 -0.090909  0.090909      1.000000
  0.181818 -0.090909  0.090909      1.000000
  0.272727 -0.090909  0.090909      1.000000
  0.363636 -0.090909  0.090909      1.000000
  0.454545 -0.090909  0.090909      1.000000
 -0.454545 -0.090909  0.090909      1.000000
 -0.363636 -0.090909  0.090909      1.000000
 -0.272727 -0.090909  0.090909      1.000000
 -0.181818 -0.090909  0.090909      1.000000
 -0.090909 -0.090909  0.090909      1.000000
 -0.000000 -0.000000  0.181818      1.000000
  0.090909 -0.000000  0.181818      1.000000
  0.181818 -0.000000  0.181818      1.000000
  0.272727 -0.000000  0.181818      1.000000
  0.363636 -0.000000  0.181818      1.000000
  0.454545  0.000000  0.181818      1.000000
 -0.454545 -0.000000  0.181818      1.000000
 -0.363636  0.000000  0.181818      1.000000
 -0.272727  0.000000  0.181818      1.000000
 -0.181818 -0.000000  0.181818      1.000000
 -0.090909  0.000000  0.181818      1.000000
 -0.000000  0.090909  0.181818      1.000000
  0.090909  0.090909  0.181818      1.000000
  0.181818  0.090909  0.181818      1.000000
  0.272727  0.090909  0.181818      1.000000
  0.363636  0.090909  0.181818      1.000000
  0.454545  0.090909  0.181818      1.000000
 -0.454545  0.090909  0.181818      1.000000
 -0.363636  0.090909  0.181818      1.000000
 -0.272727  0.090909  0.181818      1.000000
 -0.181818  0.090909  0.181818      1.000000
 -0.090909  0.090909  0.181818      1.000000
 -0.000000  0.181818  0.181818      1.000000
  0.090909  0.181818  0.181818      1.000000
  0.181818  0.181818  0.181818      1.000000
  0.272727  0.181818  0.181818      1.000000
  0.363636  0.181818  0.181818      1.000000
  0.454545  0.181818  0.181818      1.000000
 -0.454545  0.181818  0.181818      1.000000
 -0.363636  0.181818  0.181818      1.000000
 -0.272727  0.181818  0.181818      1.000000
 -0.181818  0.181818  0.181818      1.000000
 -0.090909  0.181818  0.181818      1.000000
 -0.000000  0.272727  0.181818      1.000000
  0.090909  0.272727  0.181818      1.000000
  0.181818  0.272727  0.181818      1.000000
  0.272727  0.272727  0.181818      1.000000
  0.363636  0.272727  0.181818      1.000000
  0.454545  0.272727  0.181818      1.000000
 -0.454545  0.272727  0.181818      1.000000
 -0.363636  0.272727  0.181818      1.000000
 -0.272727  0.272727  0.181818      1.000000
 -0.181818  0.272727  0.181818      1.000000
 -0.090909  0.272727  0.181818      1.000000
  0.000000  0.363636  0.181818      1.000000
  0.090909  0.363636  0.181818      1.000000
  0.181818  0.363636  0.181818      1.000000
  0.272727  0.363636  0.181818      1.000000
  0.363636  0.363636  0.181818      1.000000
  0.454545  0.363636  0.181818      1.000000
 -0.454545  0.363636  0.181818      1.000000
 -0.363636  0.363636  0.181818      1.000000
 -0.272727  0.363636  0.181818      1.000000
 -0.181818  0.363636  0.181818      1.000000
 -0.090909  0.363636  0.181818      1.000000
  0.000000  0.454545  0.181818      1.000000
  0.090909  0.454545  0.181818      1.000000
  0.181818  0.454545  0.181818      1.000000
  0.272727  0.454545  0.181818      1.000000
  0.363636  0.454545  0.181818      1.000000
  0.454545  0.454545  0.181818      1.000000
 -0.454545  0.454545  0.181818      1.000000
 -0.363636  0.454545  0.181818      1.000000
 -0.272727  0.454545  0.181818      1.000000
 -0.181818  0.454545  0.181818      1.000000
 -0.090909  0.454545  0.181818      1.000000
 -0.000000 -0.454545  0.181818      1.000000
  0.090909 -0.454545  0.181818      1.000000
  0.181818 -0.454545  0.181818      1.000000
  0.272727 -0.454545  0.181818      1.000000
  0.363636 -0.454545  0.181818      1.000000
  0.454545 -0.454545  0.181818      1.000000
 -0.454545 -0.454545  0.181818      1.000000
 -0.363636 -0.454545  0.181818      1.000000
 -0.272727 -0.454545  0.181818      1.000000
 -0.181818 -0.454545  0.181818      1.000000
 -0.090909 -0.454545  0.181818      1.000000
 -0.000000 -0.363636  0.181818      1.000000
  0.090909 -0.363636  0.181818      1.000000
  0.181818 -0.363636  0.181818      1.000000
  0.272727 -0.363636  0.181818      1.000000
  0.363636 -0.363636  0.181818      1.000000
  0.454545 -0.363636  0.181818      1.000000
 -0.454545 -0.363636  0.181818      1.000000
 -0.363636 -0.363636  0.181818      1.000000
 -0.272727 -0.363636  0.181818      1.000000
 -0.181818 -0.363636  0.181818      1.000000
 -0.090909 -0.363636  0.181818      1.000000
 -0.000000 -0.272727  0.181818      1.000000
  0.090909 -0.272727  0.181818      1.000000
  0.181818 -0.272727  0.181818      1.000000
  0.272727 -0.272727  0.181818      1.000000
  0.363636 -0.272727  0.181818      1.000000
  0.454545 -0.272727  0.181818      1.000000
 -0.454545 -0.272727  0.181818      1.000000
 -0.363636 -0.272727  0.181818      1.000000
 -0.272727 -0.272727  0.181818      1.000000
 -0.181818 -0.272727  0.181818      1.000000
 -0.090909 -0.272727  0.181818      1.000000
 -0.000000 -0.181818  0.181818      1.000000
  0.090909 -0.181818  0.181818      1.000000
  0.181818 -0.181818  0.181818      1.000000
  0.272727 -0.181818  0.181818      1.000000
  0.363636 -0.181818  0.181818      1.000000
  0.454545 -0.181818  0.181818      1.000000
 -0.454545 -0.181818  0.181818      1.000000
 -0.363636 -0.181818  0.181818      1.000000
 -0.272727 -0.181818  0.181818      1.000000
 -0.181818 -0.181818  0.181818      1.000000
 -0.090909 -0.181818  0.181818      1.000000
 -0.000000 -0.090909  0.181818      1.000000
  0.090909 -0.090909  0.181818      1.000000
  0.181818 -0.090909  0.181818      1.000000
  0.272727 -0.090909  0.181818      1.000000
  0.363636 -0.090909  0.181818      1.000000
  0.454545 -0.090909  0.181818      1.000000
 -0.454545 -0.090909  0.181818      1.000000
 -0.363636 -0.090909  0.181818      1.000000
 -0.272727 -0.090909  0.181818      1.000000
 -0.181818 -0.090909  0.181818      1.000000
 -0.090909 -0.090909  0.181818      1.000000
 -0.000000  0.000000  0.272727      1.000000
  0.090909 -0.000000  0.272727      1.000000
  0.181818 -0.000000  0.272727      1.000000
  0.272727 -0.000000  0.272727      1.000000
  0.363636 -0.000000  0.272727      1.000000
  0.454545 -0.000000  0.272727      1.000000
 -0.454545  0.000000  0.272727      1.000000
 -0.363636  0.000000  0.272727      1.000000
 -0.272727  0.000000  0.272727      1.000000
 -0.181818  0.000000  0.272727      1.000000
 -0.090909  0.000000  0.272727      1.000000
 -0.000000  0.090909  0.272727      1.000000
  0.090909  0.090909  0.272727      1.000000
  0.181818  0.090909  0.272727      1.000000
  0.272727  0.090909  0.272727      1.000000
  0.363636  0.090909  0.272727      1.000000
  0.454545  0.090909  0.272727      1.000000
 -0.454545  0.090909  0.272727      1.000000
 -0.363636  0.090909  0.272727      1.000000
 -0.272727  0.090909  0.272727      1.000000
 -0.181818  0.090909  0.272727      1.000000
 -0.090909  0.090909  0.272727      1.000000
 -0.000000  0.181818  0.272727      1.000000
  0.090909  0.181818  0.272727      1.000000
  0.181818  0.181818  0.272727      1.000000
  0.272727  0.181818  0.272727      1.000000
  0.363636  0.181818  0.272727      1.000000
  0.454545  0.181818  0.272727      1.000000
 -0.454545  0.181818  0.272727      1.000000
 -0.363636  0.181818  0.272727      1.000000
 -0.272727  0.181818  0.272727      1.000000
 -0.181818  0.181818  0.272727      1.000000
 -0.090909  0.181818  0.272727      1.000000
 -0.000000  0.272727  0.272727      1.000000
  0.090909  0.272727  0.272727      1.000000
  0.181818  0.272727  0.272727      1.000000
  0.272727  0.272727  0.272727      1.000000
  0.363636  0.272727  0.272727      1.000000
  0.454545  0.272727  0.272727      1.000000
 -0.454545  0.272727  0.272727      1.000000
 -0.363636  0.272727  0.272727      1.000000
 -0.272727  0.272727  0.272727      1.000000
 -0.181818  0.272727  0.272727      1.000000
 -0.090909  0.272727  0.272727      1.000000
  0.000000  0.363636  0.272727      1.000000
  0.090909  0.363636  0.272727      1.000000
  0.181818  0.363636  0.272727      1.000000
  0.272727  0.363636  0.272727      1.000000
  0.363636  0.363636  0.272727      1.000000
  0.454545  0.363636  0.272727      1.000000
 -0.454545  0.363636  0.272727      1.000000
 -0.363636  0.363636  0.272727      1.000000
 -0.272727  0.363636  0.272727      1.000000
 -0.181818  0.363636  0.272727      1.000000
 -0.090909  0.363636  0.272727      1.000000
  0.000000  0.454545  0.272727      1.000000
  0.090909  0.454545  0.272727      1.000000
  0.181818  0.454545  0.272727      1.000000
  0.272727  0.454545  0.272727      1.000000
  0.363636  0.454545  0.272727      1.000000
  0.454545  0.454545  0.272727      1.000000
 -0.454545  0.454545  0.272727      1.000000
 -0.363636  0.454545  0.272727      1.000000
 -0.272727  0.454545  0.272727      1.000000
 -0.181818  0.454545  0.272727      1.000000
 -0.090909  0.454545  0.272727      1.000000
 -0.000000 -0.454545  0.272727      1.000000
  0.090909 -0.454545  0.272727      1.000000
  0.181818 -0.454545  0.272727      1.000000
  0.272727 -0.454545  0.272727      1.000000
  0.363636 -0.454545  0.272727      1.000000
  0.454545 -0.454545  0.272727      1.000000
 -0.454545 -0.454545  0.272727      1.000000
 -0.363636 -0.454545  0.272727      1.000000
 -0.272727 -0.454545  0.272727      1.000000
 -0.181818 -0.454545  0.272727      1.000000
 -0.090909 -0.454545  0.272727      1.000000
 -0.000000 -0.363636  0.272727      1.000000
  0.090909 -0.363636  0.272727      1.000000
  0.181818 -0.363636  0.272727      1.000000
  0.272727 -0.363636  0.272727      1.000000
  0.363636 -0.363636  0.272727      1.000000
  0.454545 -0.363636  0.272727      1.000000
 -0.454545 -0.363636  0.272727      1.000000
 -0.363636 -0.363636  0.272727      1.000000
 -0.272727 -0.363636  0.272727      1.000000
 -0.181818 -0.363636  0.272727      1.000000
 -0.090909 -0.363636  0.272727      1.000000
 -0.000000 -0.272727  0.272727      1.000000
  0.090909 -0.272727  0.272727      1.000000
  0.181818 -0.272727  0.272727      1.000000
  0.272727 -0.272727  0.272727      1.000000
  0.363636 -0.272727  0.272727      1.000000
  0.454545 -0.272727  0.272727      1.000000
 -0.454545 -0.272727  0.272727      1.000000
 -0.363636 -0.272727  0.272727      1.000000
 -0.272727 -0.272727  0.272727      1.000000
 -0.181818 -0.272727  0.272727      1.000000
 -0.090909 -0.272727  0.272727      1.000000
 -0.000000 -0.181818  0.272727      1.000000
  0.090909 -0.181818  0.272727      1.000000
  0.181818 -0.181818  0.272727      1.000000
  0.272727 -0.181818  0.272727      1.000000
  0.363636 -0.181818  0.272727      1.000000
  0.454545 -0.181818  0.272727      1.000000
 -0.454545 -0.181818  0.272727      1.000000
 -0.363636 -0.181818  0.272727      1.000000
 -0.272727 -0.181818  0.272727      1.000000
 -0.181818 -0.181818  0.272727      1.000000
 -0.090909 -0.181818  0.272727      1.000000
 -0.000000 -0.090909  0.272727      1.000000
  0.090909 -0.090909  0.272727      1.000000
  0.181818 -0.090909  0.272727      1.000000
  0.272727 -0.090909  0.272727      1.000000
  0.363636 -0.090909  0.272727      1.000000
  0.454545 -0.090909  0.272727      1.000000
 -0.454545 -0.090909  0.272727      1.000000
 -0.363636 -0.090909  0.272727      1.000000
 -0.272727 -0.090909  0.272727      1.000000
 -0.181818 -0.090909  0.272727      1.000000
 -0.090909 -0.090909  0.272727      1.000000
 -0.000000 -0.000000  0.363636      1.000000
  0.090909 -0.000000  0.363636      1.000000
  0.181818 -0.000000  0.363636      1.000000
  0.272727 -0.000000  0.363636      1.000000
  0.363636 -0.000000  0.363636      1.000000
  0.454545 -0.000000  0.363636      1.000000
 -0.454545  0.000000  0.363636      1.000000
 -0.363636 -0.000000  0.363636      1.000000
 -0.272727 -0.000000  0.363636      1.000000
 -0.181818  0.000000  0.363636      1.000000
 -0.090909  0.000000  0.363636      1.000000
 -0.000000  0.090909  0.363636      1.000000
  0.090909  0.090909  0.363636      1.000000
  0.181818  0.090909  0.363636      1.000000
  0.272727  0.090909  0.363636      1.000000
  0.363636  0.090909  0.363636      1.000000
  0.454545  0.090909  0.363636      1.000000
 -0.454545  0.090909  0.363636      1.000000
 -0.363636  0.090909  0.363636      1.000000
 -0.272727  0.090909  0.363636      1.000000
 -0.181818  0.090909  0.363636      1.000000
 -0.090909  0.090909  0.363636      1.000000
 -0.000000  0.181818  0.363636      1.000000
  0.090909  0.181818  0.363636      1.000000
  0.181818  0.181818  0.363636      1.000000
  0.272727  0.181818  0.363636      1.000000
  0.363636  0.181818  0.363636      1.000000
  0.454545  0.181818  0.363636      1.000000
 -0.454545  0.181818  0.363636      1.000000
 -0.363636  0.181818  0.363636      1.000000
 -0.272727  0.181818  0.363636      1.000000
 -0.181818  0.181818  0.363636      1.000000
 -0.090909  0.181818  0.363636      1.000000
 -0.000000  0.272727  0.363636      1.000000
  0.090909  0.272727  0.363636      1.000000
  0.181818  0.272727  0.363636      1.000000
  0.272727  0.272727  0.363636      1.000000
  0.363636  0.272727  0.363636      1.000000
  0.454545  0.272727  0.363636      1.000000
 -0.454545  0.272727  0.363636      1.000000
 -0.363636  0.272727  0.363636      1.000000
 -0.272727  0.272727  0.363636      1.000000
 -0.181818  0.272727  0.363636      1.000000
 -0.090909  0.272727  0.363636      1.000000
 -0.000000  0.363636  0.363636      1.000000
  0.090909  0.363636  0.363636      1.000000
  0.181818  0.363636  0.363636      1.000000
  0.272727  0.363636  0.363636      1.000000
  0.363636  0.363636  0.363636      1.000000
  0.454545  0.363636  0.363636      1.000000
 -0.454545  0.363636  0.363636      1.000000
 -0.363636  0.363636  0.363636      1.000000
 -0.272727  0.363636  0.363636      1.000000
 -0.181818  0.363636  0.363636      1.000000
 -0.090909  0.363636  0.363636      1.000000
 -0.000000  0.454545  0.363636      1.000000
  0.090909  0.454545  0.363636      1.000000
  0.181818  0.454545  0.363636      1.000000
  0.272727  0.454545  0.363636      1.000000
  0.363636  0.454545  0.363636      1.000000
  0.454545  0.454545  0.363636      1.000000
 -0.454545  0.454545  0.363636      1.000000
 -0.363636  0.454545  0.363636      1.000000
 -0.272727  0.454545  0.363636      1.000000
 -0.181818  0.454545  0.363636      1.000000
 -0.090909  0.454545  0.363636      1.000000
 -0.000000 -0.454545  0.363636      1.000000
  0.090909 -0.454545  0.363636      1.000000
  0.181818 -0.454545  0.363636      1.000000
  0.272727 -0.454545  0.363636      1.000000
  0.363636 -0.454545  0.363636      1.000000
  0.454545 -0.454545  0.363636      1.000000
 -0.454545 -0.454545  0.363636      1.000000
 -0.363636 -0.454545  0.363636      1.000000
 -0.272727 -0.454545  0.363636      1.000000
 -0.181818 -0.454545  0.363636      1.000000
 -0.090909 -0.454545  0.363636      1.000000
 -0.000000 -0.363636  0.363636      1.000000
  0.090909 -0.363636  0.363636      1.000000
  0.181818 -0.363636  0.363636      1.000000
  0.272727 -0.363636  0.363636      1.000000
  0.363636 -0.363636  0.363636      1.000000
  0.454545 -0.363636  0.363636      1.000000
 -0.454545 -0.363636  0.363636      1.000000
 -0.363636 -0.363636  0.363636      1.000000
 -0.272727 -0.363636  0.363636      1.000000
 -0.181818 -0.363636  0.363636      1.000000
 -0.090909 -0.363636  0.363636      1.000000
 -0.000000 -0.272727  0.363636      1.000000
  0.090909 -0.272727  0.363636      1.000000
  0.181818 -0.272727  0.363636      1.000000
  0.272727 -0.272727  0.363636      1.000000
  0.363636 -0.272727  0.363636      1.000000
  0.454545 -0.272727  0.363636      1.000000
 -0.454545 -0.272727  0.363636      1.000000
 -0.363636 -0.272727  0.363636      1.000000
 -0.272727 -0.272727  0.363636      1.000000
 -0.181818 -0.272727  0.363636      1.000000
 -0.090909 -0.272727  0.363636      1.000000
 -0.000000 -0.181818  0.363636      1.000000
  0.090909 -0.181818  0.363636      1.000000
  0.181818 -0.181818  0.363636      1.000000
  0.272727 -0.181818  0.363636      1.000000
  0.363636 -0.181818  0.363636      1.000000
  0.454545 -0.181818  0.363636      1.000000
 -0.454545 -0.181818  0.363636      1.000000
 -0.363636 -0.181818  0.363636      1.000000
 -0.272727 -0.181818  0.363636      1.000000
 -0.181818 -0.181818  0.363636      1.000000
 -0.090909 -0.181818  0.363636      1.000000
 -0.000000 -0.090909  0.363636      1.000000
  0.090909 -0.090909  0.363636      1.000000
  0.181818 -0.090909  0.363636      1.000000
  0.272727 -0.090909  0.363636      1.000000
  0.363636 -0.090909  0.363636      1.000000
  0.454545 -0.090909  0.363636      1.000000
 -0.454545 -0.090909  0.363636      1.000000
 -0.363636 -0.090909  0.363636      1.000000
 -0.272727 -0.090909  0.363636      1.000000
 -0.181818 -0.090909  0.363636      1.000000
 -0.090909 -0.090909  0.363636      1.000000
 -0.000000 -0.000000  0.454545      1.000000
  0.090909 -0.000000  0.454545      1.000000
  0.181818  0.000000  0.454545      1.000000
  0.272727 -0.000000  0.454545      1.000000
  0.363636 -0.000000  0.454545      1.000000
  0.454545 -0.000000  0.454545      1.000000
 -0.454545  0.000000  0.454545      1.000000
 -0.363636  0.000000  0.454545      1.000000
 -0.272727 -0.000000  0.454545      1.000000
 -0.181818  0.000000  0.454545      1.000000
 -0.090909  0.000000  0.454545      1.000000
 -0.000000  0.090909  0.454545      1.000000
  0.090909  0.090909  0.454545      1.000000
  0.181818  0.090909  0.454545      1.000000
  0.272727  0.090909  0.454545      1.000000
  0.363636  0.090909  0.454545      1.000000
  0.454545  0.090909  0.454545      1.000000
 -0.454545  0.090909  0.454545      1.000000
 -0.363636  0.090909  0.454545      1.000000
 -0.272727  0.090909  0.454545      1.000000
 -0.181818  0.090909  0.454545      1.000000
 -0.090909  0.090909  0.454545      1.000000
 -0.000000  0.181818  0.454545      1.000000
  0.090909  0.181818  0.454545      1.000000
  0.181818  0.181818  0.454545      1.000000
  0.272727  0.181818  0.454545      1.000000
  0.363636  0.181818  0.454545      1.000000
  0.454545  0.181818  0.454545      1.000000
 -0.454545  0.181818  0.454545      1.000000
 -0.363636  0.181818  0.454545      1.000000
 -0.272727  0.181818  0.454545      1.000000
 -0.181818  0.181818  0.454545      1.000000
 -0.090909  0.181818  0.454545      1.000000
 -0.000000  0.272727  0.454545      1.000000
  0.090909  0.272727  0.454545      1.000000
  0.181818  0.272727  0.454545      1.000000
  0.272727  0.272727  0.454545      1.000000
  0.363636  0.272727  0.454545      1.000000
  0.454545  0.272727  0.454545      1.000000
 -0.454545  0.272727  0.454545      1.000000
 -0.363636  0.272727  0.454545      1.000000
 -0.272727  0.272727  0.454545      1.000000
 -0.181818  0.272727  0.454545      1.000000
 -0.090909  0.272727  0.454545      1.000000
 -0.000000  0.363636  0.454545      1.000000
  0.090909  0.363636  0.454545      1.000000
  0.181818  0.363636  0.454545      1.000000
  0.272727  0.363636  0.454545      1.000000
  0.363636  0.363636  0.454545      1.000000
  0.454545  0.363636  0.454545      1.000000
 -0.454545  0.363636  0.454545      1.000000
 -0.363636  0.363636  0.454545      1.000000
 -0.272727  0.363636  0.454545      1.000000
 -0.181818  0.363636  0.454545      1.000000
 -0.090909  0.363636  0.454545      1.000000
 -0.000000  0.454545  0.454545      1.000000
  0.090909  0.454545  0.454545      1.000000
  0.181818  0.454545  0.454545      1.000000
  0.272727  0.454545  0.454545      1.000000
  0.363636  0.454545  0.454545      1.000000
  0.454545  0.454545  0.454545      1.000000
 -0.454545  0.454545  0.454545      1.000000
 -0.363636  0.454545  0.454545      1.000000
 -0.272727  0.454545  0.454545      1.000000
 -0.181818  0.454545  0.454545      1.000000
 -0.090909  0.454545  0.454545      1.000000
 -0.000000 -0.454545  0.454545      1.000000
  0.090909 -0.454545  0.454545      1.000000
  0.181818 -0.454545  0.454545      1.000000
  0.272727 -0.454545  0.454545      1.000000
  0.363636 -0.454545  0.454545      1.000000
  0.454545 -0.454545  0.454545      1.000000
 -0.454545 -0.454545  0.454545      1.000000
 -0.363636 -0.454545  0.454545      1.000000
 -0.272727 -0.454545  0.454545      1.000000
 -0.181818 -0.454545  0.454545      1.000000
 -0.090909 -0.454545  0.454545      1.000000
  0.000000 -0.363636  0.454545      1.000000
  0.090909 -0.363636  0.454545      1.000000
  0.181818 -0.363636  0.454545      1.000000
  0.272727 -0.363636  0.454545      1.000000
  0.363636 -0.363636  0.454545      1.000000
  0.454545 -0.363636  0.454545      1.000000
 -0.454545 -0.363636  0.454545      1.000000
 -0.363636 -0.363636  0.454545      1.000000
 -0.272727 -0.363636  0.454545      1.000000
 -0.181818 -0.363636  0.454545      1.000000
 -0.090909 -0.363636  0.454545      1.000000
 -0.000000 -0.272727  0.454545      1.000000
  0.090909 -0.272727  0.454545      1.000000
  0.181818 -0.272727  0.454545      1.000000
  0.272727 -0.272727  0.454545      1.000000
  0.363636 -0.272727  0.454545      1.000000
  0.454545 -0.272727  0.454545      1.000000
 -0.454545 -0.272727  0.454545      1.000000
 -0.363636 -0.272727  0.454545      1.000000
 -0.272727 -0.272727  0.454545      1.000000
 -0.181818 -0.272727  0.454545      1.000000
 -0.090909 -0.272727  0.454545      1.000000
 -0.000000 -0.181818  0.454545      1.000000
  0.090909 -0.181818  0.454545      1.000000
  0.181818 -0.181818  0.454545      1.000000
  0.272727 -0.181818  0.454545      1.000000
  0.363636 -0.181818  0.454545      1.000000
  0.454545 -0.181818  0.454545      1.000000
 -0.454545 -0.181818  0.454545      1.000000
 -0.363636 -0.181818  0.454545      1.000000
 -0.272727 -0.181818  0.454545      1.000000
 -0.181818 -0.181818  0.454545      1.000000
 -0.090909 -0.181818  0.454545      1.000000
 -0.000000 -0.090909  0.454545      1.000000
  0.090909 -0.090909  0.454545      1.000000
  0.181818 -0.090909  0.454545      1.000000
  0.272727 -0.090909  0.454545      1.000000
  0.363636 -0.090909  0.454545      1.000000
  0.454545 -0.090909  0.454545      1.000000
 -0.454545 -0.090909  0.454545      1.000000
 -0.363636 -0.090909  0.454545      1.000000
 -0.272727 -0.090909  0.454545      1.000000
 -0.181818 -0.090909  0.454545      1.000000
 -0.090909 -0.090909  0.454545      1.000000
  0.000000  0.000000 -0.454545      1.000000
  0.090909 -0.000000 -0.454545      1.000000
  0.181818  0.000000 -0.454545      1.000000
  0.272727  0.000000 -0.454545      1.000000
  0.363636  0.000000 -0.454545      1.000000
  0.454545 -0.000000 -0.454545      1.000000
 -0.454545  0.000000 -0.454545      1.000000
 -0.363636  0.000000 -0.454545      1.000000
 -0.272727  0.000000 -0.454545      1.000000
 -0.181818  0.000000 -0.454545      1.000000
 -0.090909  0.000000 -0.454545      1.000000
  0.000000  0.090909 -0.454545      1.000000
  0.090909  0.090909 -0.454545      1.000000
  0.181818  0.090909 -0.454545      1.000000
  0.272727  0.090909 -0.454545      1.000000
  0.363636  0.090909 -0.454545      1.000000
  0.454545  0.090909 -0.454545      1.000000
 -0.454545  0.090909 -0.454545      1.000000
 -0.363636  0.090909 -0.454545      1.000000
 -0.272727  0.090909 -0.454545      1.000000
 -0.181818  0.090909 -0.454545      1.000000
 -0.090909  0.090909 -0.454545      1.000000
  0.000000  0.181818 -0.454545      1.000000
  0.090909  0.181818 -0.454545      1.000000
  0.181818  0.181818 -0.454545      1.000000
  0.272727  0.181818 -0.454545      1.000000
  0.363636  0.181818 -0.454545      1.000000
  0.454545  0.181818 -0.454545      1.000000
 -0.454545  0.181818 -0.454545      1.000000
 -0.363636  0.181818 -0.454545      1.000000
 -0.272727  0.181818 -0.454545      1.000000
 -0.181818  0.181818 -0.454545      1.000000
 -0.090909  0.181818 -0.454545      1.000000
  0.000000  0.272727 -0.454545      1.000000
  0.090909  0.272727 -0.454545      1.000000
  0.181818  0.272727 -0.454545      1.000000
  0.272727  0.272727 -0.454545      1.000000
  0.363636  0.272727 -0.454545      1.000000
  0.454545  0.272727 -0.454545      1.000000
 -0.454545  0.272727 -0.454545      1.000000
 -0.363636  0.272727 -0.454545      1.000000
 -0.272727  0.272727 -0.454545      1.000000
 -0.181818  0.272727 -0.454545      1.000000
 -0.090909  0.272727 -0.454545      1.000000
  0.000000  0.363636 -0.454545      1.000000
  0.090909  0.363636 -0.454545      1.000000
  0.181818  0.363636 -0.454545      1.000000
  0.272727  0.363636 -0.454545      1.000000
  0.363636  0.363636 -0.454545      1.000000
  0.454545  0.363636 -0.454545      1.000000
 -0.454545  0.363636 -0.454545      1.000000
 -0.363636  0.363636 -0.454545      1.000000
 -0.272727  0.363636 -0.454545      1.000000
 -0.181818  0.363636 -0.454545      1.000000
 -0.090909  0.363636 -0.454545      1.000000
  0.000000  0.454545 -0.454545      1.000000
  0.090909  0.454545 -0.454545      1.000000
  0.181818  0.454545 -0.454545      1.000000
  0.272727  0.454545 -0.454545      1.000000
  0.363636  0.454545 -0.454545      1.000000
  0.454545  0.454545 -0.454545      1.000000
 -0.454545  0.454545 -0.454545      1.000000
 -0.363636  0.454545 -0.454545      1.000000
 -0.272727  0.454545 -0.454545      1.000000
 -0.181818  0.454545 -0.454545      1.000000
 -0.090909  0.454545 -0.454545      1.000000
  0.000000 -0.454545 -0.454545      1.000000
  0.090909 -0.454545 -0.454545      1.000000
  0.181818 -0.454545 -0.454545      1.000000
  0.272727 -0.454545 -0.454545      1.000000
  0.363636 -0.454545 -0.454545      1.000000
  0.454545 -0.454545 -0.454545      1.000000
 -0.454545 -0.454545 -0.454545      1.000000
 -0.363636 -0.454545 -0.454545      1.000000
 -0.272727 -0.454545 -0.454545      1.000000
 -0.181818 -0.454545 -0.454545      1.000000
 -0.090909 -0.454545 -0.454545      1.000000
  0.000000 -0.363636 -0.454545      1.000000
  0.090909 -0.363636 -0.454545      1.000000
  0.181818 -0.363636 -0.454545      1.000000
  0.272727 -0.363636 -0.454545      1.000000
  0.363636 -0.363636 -0.454545      1.000000
  0.454545 -0.363636 -0.454545      1.000000
 -0.454545 -0.363636 -0.454545      1.000000
 -0.363636 -0.363636 -0.454545      1.000000
 -0.272727 -0.363636 -0.454545      1.000000
 -0.181818 -0.363636 -0.454545      1.000000
 -0.090909 -0.363636 -0.454545      1.000000
  0.000000 -0.272727 -0.454545      1.000000
  0.090909 -0.272727 -0.454545      1.000000
  0.181818 -0.272727 -0.454545      1.000000
  0.272727 -0.272727 -0.454545      1.000000
  0.363636 -0.272727 -0.454545      1.000000
  0.454545 -0.272727 -0.454545      1.000000
 -0.454545 -0.272727 -0.454545      1.000000
 -0.363636 -0.272727 -0.454545      1.000000
 -0.272727 -0.272727 -0.454545      1.000000
 -0.181818 -0.272727 -0.454545      1.000000
 -0.090909 -0.272727 -0.454545      1.000000
  0.000000 -0.181818 -0.454545      1.000000
  0.090909 -0.181818 -0.454545      1.000000
  0.181818 -0.181818 -0.454545      1.000000
  0.272727 -0.181818 -0.454545      1.000000
  0.363636 -0.181818 -0.454545      1.000000
  0.454545 -0.181818 -0.454545      1.000000
 -0.454545 -0.181818 -0.454545      1.000000
 -0.363636 -0.181818 -0.454545      1.000000
 -0.272727 -0.181818 -0.454545      1.000000
 -0.181818 -0.181818 -0.454545      1.000000
 -0.090909 -0.181818 -0.454545      1.000000
  0.000000 -0.090909 -0.454545      1.000000
  0.090909 -0.090909 -0.454545      1.000000
  0.181818 -0.090909 -0.454545      1.000000
  0.272727 -0.090909 -0.454545      1.000000
  0.363636 -0.090909 -0.454545      1.000000
  0.454545 -0.090909 -0.454545      1.000000
 -0.454545 -0.090909 -0.454545      1.000000
 -0.363636 -0.090909 -0.454545      1.000000
 -0.272727 -0.090909 -0.454545      1.000000
 -0.181818 -0.090909 -0.454545      1.000000
 -0.090909 -0.090909 -0.454545      1.000000
  0.000000  0.000000 -0.363636      1.000000
  0.090909  0.000000 -0.363636      1.000000
  0.181818 -0.000000 -0.363636      1.000000
  0.272727  0.000000 -0.363636      1.000000
  0.363636  0.000000 -0.363636      1.000000
  0.454545 -0.000000 -0.363636      1.000000
 -0.454545  0.000000 -0.363636      1.000000
 -0.363636  0.000000 -0.363636      1.000000
 -0.272727  0.000000 -0.363636      1.000000
 -0.181818  0.000000 -0.363636      1.000000
 -0.090909  0.000000 -0.363636      1.000000
  0.000000  0.090909 -0.363636      1.000000
  0.090909  0.090909 -0.363636      1.000000
  0.181818  0.090909 -0.363636      1.000000
  0.272727  0.090909 -0.363636      1.000000
  0.363636  0.090909 -0.363636      1.000000
  0.454545  0.090909 -0.363636      1.000000
 -0.454545  0.090909 -0.363636      1.000000
 -0.363636  0.090909 -0.363636      1.000000
 -0.272727  0.090909 -0.363636      1.000000
 -0.181818  0.090909 -0.363636      1.000000
 -0.090909  0.090909 -0.363636      1.000000
  0.000000  0.181818 -0.363636      1.000000
  0.090909  0.181818 -0.363636      1.000000
  0.181818  0.181818 -0.363636      1.000000
  0.272727  0.181818 -0.363636      1.000000
  0.363636  0.181818 -0.363636      1.000000
  0.454545  0.181818 -0.363636      1.000000
 -0.454545  0.181818 -0.363636      1.000000
 -0.363636  0.181818 -0.363636      1.000000
 -0.272727  0.181818 -0.363636      1.000000
 -0.181818  0.181818 -0.363636      1.000000
 -0.090909  0.181818 -0.363636      1.000000
  0.000000  0.272727 -0.363636      1.000000
  0.090909  0.272727 -0.363636      1.000000
  0.181818  0.272727 -0.363636      1.000000
  0.272727  0.272727 -0.363636      1.000000
  0.363636  0.272727 -0.363636      1.000000
  0.454545  0.272727 -0.363636      1.000000
 -0.454545  0.272727 -0.363636      1.000000
 -0.363636  0.272727 -0.363636      1.000000
 -0.272727  0.272727 -0.363636      1.000000
 -0.181818  0.272727 -0.363636      1.000000
 -0.090909  0.272727 -0.363636      1.000000
  0.000000  0.363636 -0.363636      1.000000
  0.090909  0.363636 -0.363636      1.000000
  0.181818  0.363636 -0.363636      1.000000
  0.272727  0.363636 -0.363636      1.000000
  0.363636  0.363636 -0.363636      1.000000
  0.454545  0.363636 -0.363636      1.000000
 -0.454545  0.363636 -0.363636      1.000000
 -0.363636  0.363636 -0.363636      1.000000
 -0.272727  0.363636 -0.363636      1.000000
 -0.181818  0.363636 -0.363636      1.000000
 -0.090909  0.363636 -0.363636      1.000000
  0.000000  0.454545 -0.363636      1.000000
  0.090909  0.454545 -0.363636      1.000000
  0.181818  0.454545 -0.363636      1.000000
  0.272727  0.454545 -0.363636      1.000000
  0.363636  0.454545 -0.363636      1.000000
  0.454545  0.454545 -0.363636      1.000000
 -0.454545  0.454545 -0.363636      1.000000
 -0.363636  0.454545 -0.363636      1.000000
 -0.272727  0.454545 -0.363636      1.000000
 -0.181818  0.454545 -0.363636      1.000000
 -0.090909  0.454545 -0.363636      1.000000
  0.000000 -0.454545 -0.363636      1.000000
  0.090909 -0.454545 -0.363636      1.000000
  0.181818 -0.454545 -0.363636      1.000000
  0.272727 -0.454545 -0.363636      1.000000
  0.363636 -0.454545 -0.363636      1.000000
  0.454545 -0.454545 -0.363636      1.000000
 -0.454545 -0.454545 -0.363636      1.000000
 -0.363636 -0.454545 -0.363636      1.000000
 -0.272727 -0.454545 -0.363636      1.000000
 -0.181818 -0.454545 -0.363636      1.000000
 -0.090909 -0.454545 -0.363636      1.000000
  0.000000 -0.363636 -0.363636      1.000000
  0.090909 -0.363636 -0.363636      1.000000
  0.181818 -0.363636 -0.363636      1.000000
  0.272727 -0.363636 -0.363636      1.000000
  0.363636 -0.363636 -0.363636      1.000000
  0.454545 -0.363636 -0.363636      1.000000
 -0.454545 -0.363636 -0.363636      1.000000
 -0.363636 -0.363636 -0.363636      1.000000
 -0.272727 -0.363636 -0.363636      1.000000
 -0.181818 -0.363636 -0.363636      1.000000
 -0.090909 -0.363636 -0.363636      1.000000
  0.000000 -0.272727 -0.363636      1.000000
  0.090909 -0.272727 -0.363636      1.000000
  0.181818 -0.272727 -0.363636      1.000000
  0.272727 -0.272727 -0.363636      1.000000
  0.363636 -0.272727 -0.363636      1.000000
  0.454545 -0.272727 -0.363636      1.000000
 -0.454545 -0.272727 -0.363636      1.000000
 -0.363636 -0.272727 -0.363636      1.000000
 -0.272727 -0.272727 -0.363636      1.000000
 -0.181818 -0.272727 -0.363636      1.000000
 -0.090909 -0.272727 -0.363636      1.000000
  0.000000 -0.181818 -0.363636      1.000000
  0.090909 -0.181818 -0.363636      1.000000
  0.181818 -0.181818 -0.363636      1.000000
  0.272727 -0.181818 -0.363636      1.000000
  0.363636 -0.181818 -0.363636      1.000000
  0.454545 -0.181818 -0.363636      1.000000
 -0.454545 -0.181818 -0.363636      1.000000
 -0.363636 -0.181818 -0.363636      1.000000
 -0.272727 -0.181818 -0.363636      1.000000
 -0.181818 -0.181818 -0.363636      1.000000
 -0.090909 -0.181818 -0.363636      1.000000
  0.000000 -0.090909 -0.363636      1.000000
  0.090909 -0.090909 -0.363636      1.000000
  0.181818 -0.090909 -0.363636      1.000000
  0.272727 -0.090909 -0.363636      1.000000
  0.363636 -0.090909 -0.363636      1.000000
  0.454545 -0.090909 -0.363636      1.000000
 -0.454545 -0.090909 -0.363636      1.000000
 -0.363636 -0.090909 -0.363636      1.000000
 -0.272727 -0.090909 -0.363636      1.000000
 -0.181818 -0.090909 -0.363636      1.000000
 -0.090909 -0.090909 -0.363636      1.000000
  0.000000 -0.000000 -0.272727      1.000000
  0.090909  0.000000 -0.272727      1.000000
  0.181818 -0.000000 -0.272727      1.000000
  0.272727  0.000000 -0.272727      1.000000
  0.363636 -0.000000 -0.272727      1.000000
  0.454545  0.000000 -0.272727      1.000000
 -0.454545  0.000000 -0.272727      1.000000
 -0.363636  0.000000 -0.272727      1.000000
 -0.272727  0.000000 -0.272727      1.000000
 -0.181818  0.000000 -0.272727      1.000000
 -0.090909  0.000000 -0.272727      1.000000
  0.000000  0.090909 -0.272727      1.000000
  0.090909  0.090909 -0.272727      1.000000
  0.181818  0.090909 -0.272727      1.000000
  0.272727  0.090909 -0.272727      1.000000
  0.363636  0.090909 -0.272727      1.000000
  0.454545  0.090909 -0.272727      1.000000
 -0.454545  0.090909 -0.272727      1.000000
 -0.363636  0.090909 -0.272727      1.000000
 -0.272727  0.090909 -0.272727      1.000000
 -0.181818  0.090909 -0.272727      1.000000
 -0.090909  0.090909 -0.272727      1.000000
  0.000000  0.181818 -0.272727      1.000000
  0.090909  0.181818 -0.272727      1.000000
  0.181818  0.181818 -0.272727      1.000000
  0.272727  0.181818 -0.272727      1.000000
  0.363636  0.181818 -0.272727      1.000000
  0.454545  0.181818 -0.272727      1.000000
 -0.454545  0.181818 -0.272727      1.000000
 -0.363636  0.181818 -0.272727      1.000000
 -0.272727  0.181818 -0.272727      1.000000
 -0.181818  0.181818 -0.272727      1.000000
 -0.090909  0.181818 -0.272727      1.000000
  0.000000  0.272727 -0.272727      1.000000
  0.090909  0.272727 -0.272727      1.000000
  0.181818  0.272727 -0.272727      1.000000
  0.272727  0.272727 -0.272727      1.000000
  0.363636  0.272727 -0.272727      1.000000
  0.454545  0.272727 -0.272727      1.000000
 -0.454545  0.272727 -0.272727      1.000000
 -0.363636  0.272727 -0.272727      1.000000
 -0.272727  0.272727 -0.272727      1.000000
 -0.181818  0.272727 -0.272727      1.000000
 -0.090909  0.272727 -0.272727      1.000000
  0.000000  0.363636 -0.272727      1.000000
  0.090909  0.363636 -0.272727      1.000000
  0.181818  0.363636 -0.272727      1.000000
  0.272727  0.363636 -0.272727      1.000000
  0.363636  0.363636 -0.272727      1.000000
  0.454545  0.363636 -0.272727      1.000000
 -0.454545  0.363636 -0.272727      1.000000
 -0.363636  0.363636 -0.272727      1.000000
 -0.272727  0.363636 -0.272727      1.000000
 -0.181818  0.363636 -0.272727      1.000000
 -0.090909  0.363636 -0.272727      1.000000
  0.000000  0.454545 -0.272727      1.000000
  0.090909  0.454545 -0.272727      1.000000
  0.181818  0.454545 -0.272727      1.000000
  0.272727  0.454545 -0.272727      1.000000
  0.363636  0.454545 -0.272727      1.000000
  0.454545  0.454545 -0.272727      1.000000
 -0.454545  0.454545 -0.272727      1.000000
 -0.363636  0.454545 -0.272727      1.000000
 -0.272727  0.454545 -0.272727      1.000000
 -0.181818  0.454545 -0.272727      1.000000
 -0.090909  0.454545 -0.272727      1.000000
  0.000000 -0.454545 -0.272727      1.000000
  0.090909 -0.454545 -0.272727      1.000000
  0.181818 -0.454545 -0.272727      1.000000
  0.272727 -0.454545 -0.272727      1.000000
  0.363636 -0.454545 -0.272727      1.000000
  0.454545 -0.454545 -0.272727      1.000000
 -0.454545 -0.454545 -0.272727      1.000000
 -0.363636 -0.454545 -0.272727      1.000000
 -0.272727 -0.454545 -0.272727      1.000000
 -0.181818 -0.454545 -0.272727      1.000000
 -0.090909 -0.454545 -0.272727      1.000000
 -0.000000 -0.363636 -0.272727      1.000000
  0.090909 -0.363636 -0.272727      1.000000
  0.181818 -0.363636 -0.272727      1.000000
  0.272727 -0.363636 -0.272727      1.000000
  0.363636 -0.363636 -0.272727      1.000000
  0.454545 -0.363636 -0.272727      1.000000
 -0.454545 -0.363636 -0.272727      1.000000
 -0.363636 -0.363636 -0.272727      1.000000
 -0.272727 -0.363636 -0.272727      1.000000
 -0.181818 -0.363636 -0.272727      1.000000
 -0.090909 -0.363636 -0.272727      1.000000
  0.000000 -0.272727 -0.272727      1.000000
  0.090909 -0.272727 -0.272727      1.000000
  0.181818 -0.272727 -0.272727      1.000000
  0.272727 -0.272727 -0.272727      1.000000
  0.363636 -0.272727 -0.272727      1.000000
  0.454545 -0.272727 -0.272727      1.000000
 -0.454545 -0.272727 -0.272727      1.000000
 -0.363636 -0.272727 -0.272727      1.000000
 -0.272727 -0.272727 -0.272727      1.000000
 -0.181818 -0.272727 -0.272727      1.000000
 -0.090909 -0.272727 -0.272727      1.000000
  0.000000 -0.181818 -0.272727      1.000000
  0.090909 -0.181818 -0.272727      1.000000
  0.181818 -0.181818 -0.272727      1.000000
  0.272727 -0.181818 -0.272727      1.000000
  0.363636 -0.181818 -0.272727      1.000000
  0.454545 -0.181818 -0.272727      1.000000
 -0.454545 -0.181818 -0.272727      1.000000
 -0.363636 -0.181818 -0.272727      1.000000
 -0.272727 -0.181818 -0.272727      1.000000
 -0.181818 -0.181818 -0.272727      1.000000
 -0.090909 -0.181818 -0.272727      1.000000
  0.000000 -0.090909 -0.272727      1.000000
  0.090909 -0.090909 -0.272727      1.000000
  0.181818 -0.090909 -0.272727      1.000000
  0.272727 -0.090909 -0.272727      1.000000
  0.363636 -0.090909 -0.272727      1.000000
  0.454545 -0.090909 -0.272727      1.000000
 -0.454545 -0.090909 -0.272727      1.000000
 -0.363636 -0.090909 -0.272727      1.000000
 -0.272727 -0.090909 -0.272727      1.000000
 -0.181818 -0.090909 -0.272727      1.000000
 -0.090909 -0.090909 -0.272727      1.000000
  0.000000  0.000000 -0.181818      1.000000
  0.090909 -0.000000 -0.181818      1.000000
  0.181818  0.000000 -0.181818      1.000000
  0.272727 -0.000000 -0.181818      1.000000
  0.363636  0.000000 -0.181818      1.000000
  0.454545  0.000000 -0.181818      1.000000
 -0.454545  0.000000 -0.181818      1.000000
 -0.363636  0.000000 -0.181818      1.000000
 -0.272727  0.000000 -0.181818      1.000000
 -0.181818  0.000000 -0.181818      1.000000
 -0.090909  0.000000 -0.181818      1.000000
  0.000000  0.090909 -0.181818      1.000000
  0.090909  0.090909 -0.181818      1.000000
  0.181818  0.090909 -0.181818      1.000000
  0.272727  0.090909 -0.181818      1.000000
  0.363636  0.090909 -0.181818      1.000000
  0.454545  0.090909 -0.181818      1.000000
 -0.454545  0.090909 -0.181818      1.000000
 -0.363636  0.090909 -0.181818      1.000000
 -0.272727  0.090909 -0.181818      1.000000
 -0.181818  0.090909 -0.181818      1.000000
 -0.090909  0.090909 -0.181818      1.000000
  0.000000  0.181818 -0.181818      1.000000
  0.090909  0.181818 -0.181818      1.000000
  0.181818  0.181818 -0.181818      1.000000
  0.272727  0.181818 -0.181818      1.000000
  0.363636  0.181818 -0.181818      1.000000
  0.454545  0.181818 -0.181818      1.000000
 -0.454545  0.181818 -0.181818      1.000000
 -0.363636  0.181818 -0.181818      1.000000
 -0.272727  0.181818 -0.181818      1.000000
 -0.181818  0.181818 -0.181818      1.000000
 -0.090909  0.181818 -0.181818      1.000000
  0.000000  0.272727 -0.181818      1.000000
  0.090909  0.272727 -0.181818      1.000000
  0.181818  0.272727 -0.181818      1.000000
  0.272727  0.272727 -0.181818      1.000000
  0.363636  0.272727 -0.181818      1.000000
  0.454545  0.272727 -0.181818      1.000000
 -0.454545  0.272727 -0.181818      1.000000
 -0.363636  0.272727 -0.181818      1.000000
 -0.272727  0.272727 -0.181818      1.000000
 -0.181818  0.272727 -0.181818      1.000000
 -0.090909  0.272727 -0.181818      1.000000
  0.000000  0.363636 -0.181818      1.000000
  0.090909  0.363636 -0.181818      1.000000
  0.181818  0.363636 -0.181818      1.000000
  0.272727  0.363636 -0.181818      1.000000
  0.363636  0.363636 -0.181818      1.000000
  0.454545  0.363636 -0.181818      1.000000
 -0.454545  0.363636 -0.181818      1.000000
 -0.363636  0.363636 -0.181818      1.000000
 -0.272727  0.363636 -0.181818      1.000000
 -0.181818  0.363636 -0.181818      1.000000
 -0.090909  0.363636 -0.181818      1.000000
  0.000000  0.454545 -0.181818      1.000000
  0.090909  0.454545 -0.181818      1.000000
  0.181818  0.454545 -0.181818      1.000000
  0.272727  0.454545 -0.181818      1.000000
  0.363636  0.454545 -0.181818      1.000000
  0.454545  0.454545 -0.181818      1.000000
 -0.454545  0.454545 -0.181818      1.000000
 -0.363636  0.454545 -0.181818      1.000000
 -0.272727  0.454545 -0.181818      1.000000
 -0.181818  0.454545 -0.181818      1.000000
 -0.090909  0.454545 -0.181818      1.000000
  0.000000 -0.454545 -0.181818      1.000000
  0.090909 -0.454545 -0.181818      1.000000
  0.181818 -0.454545 -0.181818      1.000000
  0.272727 -0.454545 -0.181818      1.000000
  0.363636 -0.454545 -0.181818      1.000000
  0.454545 -0.454545 -0.181818      1.000000
 -0.454545 -0.454545 -0.181818      1.000000
 -0.363636 -0.454545 -0.181818      1.000000
 -0.272727 -0.454545 -0.181818      1.000000
 -0.181818 -0.454545 -0.181818      1.000000
 -0.090909 -0.454545 -0.181818      1.000000
  0.000000 -0.363636 -0.181818      1.000000
  0.090909 -0.363636 -0.181818      1.000000
  0.181818 -0.363636 -0.181818      1.000000
  0.272727 -0.363636 -0.181818      1.000000
  0.363636 -0.363636 -0.181818      1.000000
  0.454545 -0.363636 -0.181818      1.000000
 -0.454545 -0.363636 -0.181818      1.000000
 -0.363636 -0.363636 -0.181818      1.000000
 -0.272727 -0.363636 -0.181818      1.000000
 -0.181818 -0.363636 -0.181818      1.000000
 -0.090909 -0.363636 -0.181818      1.000000
  0.000000 -0.272727 -0.181818      1.000000
  0.090909 -0.272727 -0.181818      1.000000
  0.181818 -0.272727 -0.181818      1.000000
  0.272727 -0.272727 -0.181818      1.000000
  0.363636 -0.272727 -0.181818      1.000000
  0.454545 -0.272727 -0.181818      1.000000
 -0.454545 -0.272727 -0.181818      1.000000
 -0.363636 -0.272727 -0.181818      1.000000
 -0.272727 -0.272727 -0.181818      1.000000
 -0.181818 -0.272727 -0.181818      1.000000
 -0.090909 -0.272727 -0.181818      1.000000
  0.000000 -0.181818 -0.181818      1.000000
  0.090909 -0.181818 -0.181818      1.000000
  0.181818 -0.181818 -0.181818      1.000000
  0.272727 -0.181818 -0.181818      1.000000
  0.363636 -0.181818 -0.181818      1.000000
  0.454545 -0.181818 -0.181818      1.000000
 -0.454545 -0.181818 -0.181818      1.000000
 -0.363636 -0.181818 -0.181818      1.000000
 -0.272727 -0.181818 -0.181818      1.000000
 -0.181818 -0.181818 -0.181818      1.000000
 -0.090909 -0.181818 -0.181818      1.000000
  0.000000 -0.090909 -0.181818      1.000000
  0.090909 -0.090909 -0.181818      1.000000
  0.181818 -0.090909 -0.181818      1.000000
  0.272727 -0.090909 -0.181818      1.000000
  0.363636 -0.090909 -0.181818      1.000000
  0.454545 -0.090909 -0.181818      1.000000
 -0.454545 -0.090909 -0.181818      1.000000
 -0.363636 -0.090909 -0.181818      1.000000
 -0.272727 -0.090909 -0.181818      1.000000
 -0.181818 -0.090909 -0.181818      1.000000
 -0.090909 -0.090909 -0.181818      1.000000
  0.000000  0.000000 -0.090909      1.000000
  0.090909  0.000000 -0.090909      1.000000
  0.181818  0.000000 -0.090909      1.000000
  0.272727  0.000000 -0.090909      1.000000
  0.363636 -0.000000 -0.090909      1.000000
  0.454545  0.000000 -0.090909      1.000000
 -0.454545  0.000000 -0.090909      1.000000
 -0.363636  0.000000 -0.090909      1.000000
 -0.272727  0.000000 -0.090909      1.000000
 -0.181818  0.000000 -0.090909      1.000000
 -0.090909  0.000000 -0.090909      1.000000
  0.000000  0.090909 -0.090909      1.000000
  0.090909  0.090909 -0.090909      1.000000
  0.181818  0.090909 -0.090909      1.000000
  0.272727  0.090909 -0.090909      1.000000
  0.363636  0.090909 -0.090909      1.000000
  0.454545  0.090909 -0.090909      1.000000
 -0.454545  0.090909 -0.090909      1.000000
 -0.363636  0.090909 -0.090909      1.000000
 -0.272727  0.090909 -0.090909      1.000000
 -0.181818  0.090909 -0.090909      1.000000
 -0.090909  0.090909 -0.090909      1.000000
  0.000000  0.181818 -0.090909      1.000000
  0.090909  0.181818 -0.090909      1.000000
  0.181818  0.181818 -0.090909      1.000000
  0.272727  0.181818 -0.090909      1.000000
  0.363636  0.181818 -0.090909      1.000000
  0.454545  0.181818 -0.090909      1.000000
 -0.454545  0.181818 -0.090909      1.000000
 -0.363636  0.181818 -0.090909      1.000000
 -0.272727  0.181818 -0.090909      1.000000
 -0.181818  0.181818 -0.090909      1.000000
 -0.090909  0.181818 -0.090909      1.000000
  0.000000  0.272727 -0.090909      1.000000
  0.090909  0.272727 -0.090909      1.000000
  0.181818  0.272727 -0.090909      1.000000
  0.272727  0.272727 -0.090909      1.000000
  0.363636  0.272727 -0.090909      1.000000
  0.454545  0.272727 -0.090909      1.000000
 -0.454545  0.272727 -0.090909      1.000000
 -0.363636  0.272727 -0.090909      1.000000
 -0.272727  0.272727 -0.090909      1.000000
 -0.181818  0.272727 -0.090909      1.000000
 -0.090909  0.272727 -0.090909      1.000000
  0.000000  0.363636 -0.090909      1.000000
  0.090909  0.363636 -0.090909      1.000000
  0.181818  0.363636 -0.090909      1.000000
  0.272727  0.363636 -0.090909      1.000000
  0.363636  0.363636 -0.090909      1.000000
  0.454545  0.363636 -0.090909      1.000000
 -0.454545  0.363636 -0.090909      1.000000
 -0.363636  0.363636 -0.090909      1.000000
 -0.272727  0.363636 -0.090909      1.000000
 -0.181818  0.363636 -0.090909      1.000000
 -0.090909  0.363636 -0.090909      1.000000
  0.000000  0.454545 -0.090909      1.000000
  0.090909  0.454545 -0.090909      1.000000
  0.181818  0.454545 -0.090909      1.000000
  0.272727  0.454545 -0.090909      1.000000
  0.363636  0.454545 -0.090909      1.000000
  0.454545  0.454545 -0.090909      1.000000
 -0.454545  0.454545 -0.090909      1.000000
 -0.363636  0.454545 -0.090909      1.000000
 -0.272727  0.454545 -0.090909      1.000000
 -0.181818  0.454545 -0.090909      1.000000
 -0.090909  0.454545 -0.090909      1.000000
  0.000000 -0.454545 -0.090909      1.000000
  0.090909 -0.454545 -0.090909      1.000000
  0.181818 -0.454545 -0.090909      1.000000
  0.272727 -0.454545 -0.090909      1.000000
  0.363636 -0.454545 -0.090909      1.000000
  0.454545 -0.454545 -0.090909      1.000000
 -0.454545 -0.454545 -0.090909      1.000000
 -0.363636 -0.454545 -0.090909      1.000000
 -0.272727 -0.454545 -0.090909      1.000000
 -0.181818 -0.454545 -0.090909      1.000000
 -0.090909 -0.454545 -0.090909      1.000000
 -0.000000 -0.363636 -0.090909      1.000000
  0.090909 -0.363636 -0.090909      1.000000
  0.181818 -0.363636 -0.090909      1.000000
  0.272727 -0.363636 -0.090909      1.000000
  0.363636 -0.363636 -0.090909      1.000000
  0.454545 -0.363636 -0.090909      1.000000
 -0.454545 -0.363636 -0.090909      1.000000
 -0.363636 -0.363636 -0.090909      1.000000
 -0.272727 -0.363636 -0.090909      1.000000
 -0.181818 -0.363636 -0.090909      1.000000
 -0.090909 -0.363636 -0.090909      1.000000
 -0.000000 -0.272727 -0.090909      1.000000
  0.090909 -0.272727 -0.090909      1.000000
  0.181818 -0.272727 -0.090909      1.000000
  0.272727 -0.272727 -0.090909      1.000000
  0.363636 -0.272727 -0.090909      1.000000
  0.454545 -0.272727 -0.090909      1.000000
 -0.454545 -0.272727 -0.090909      1.000000
 -0.363636 -0.272727 -0.090909      1.000000
 -0.272727 -0.272727 -0.090909      1.000000
 -0.181818 -0.272727 -0.090909      1.000000
 -0.090909 -0.272727 -0.090909      1.000000
  0.000000 -0.181818 -0.090909      1.000000
  0.090909 -0.181818 -0.090909      1.000000
  0.181818 -0.181818 -0.090909      1.000000
  0.272727 -0.181818 -0.090909      1.000000
  0.363636 -0.181818 -0.090909      1.000000
  0.454545 -0.181818 -0.090909      1.000000
 -0.454545 -0.181818 -0.090909      1.000000
 -0.363636 -0.181818 -0.090909      1.000000
 -0.272727 -0.181818 -0.090909      1.000000
 -0.181818 -0.181818 -0.090909      1.000000
 -0.090909 -0.181818 -0.090909      1.000000
  0.000000 -0.090909 -0.090909      1.000000
  0.090909 -0.090909 -0.090909      1.000000
  0.181818 -0.090909 -0.090909      1.000000
  0.272727 -0.090909 -0.090909      1.000000
  0.363636 -0.090909 -0.090909      1.000000
  0.454545 -0.090909 -0.090909      1.000000
 -0.454545 -0.090909 -0.090909      1.000000
 -0.363636 -0.090909 -0.090909      1.000000
 -0.272727 -0.090909 -0.090909      1.000000
 -0.181818 -0.090909 -0.090909      1.000000
 -0.090909 -0.090909 -0.090909      1.000000
 
 Following cartesian coordinates:
            Coordinates               Weight
  0.000000  0.000000  0.000000      1.000000
 -0.022404  0.022404  0.022404      1.000000
 -0.044809  0.044809  0.044809      1.000000
 -0.067213  0.067213  0.067213      1.000000
 -0.089618  0.089618  0.089618      1.000000
 -0.112022  0.112022  0.112022      1.000000
  0.112022 -0.112022 -0.112022      1.000000
  0.089618 -0.089618 -0.089618      1.000000
  0.067213 -0.067213 -0.067213      1.000000
  0.044809 -0.044809 -0.044809      1.000000
  0.022404 -0.022404 -0.022404      1.000000
  0.022404 -0.022404  0.022404      1.000000
 -0.000000 -0.000000  0.044809      1.000000
 -0.022405  0.022404  0.067213      1.000000
 -0.044809  0.044809  0.089618      1.000000
 -0.067214  0.067213  0.112022      1.000000
 -0.089618  0.089618  0.134427      1.000000
  0.134427 -0.134427 -0.089618      1.000000
  0.112022 -0.112022 -0.067213      1.000000
  0.089618 -0.089618 -0.044809      1.000000
  0.067213 -0.067213 -0.022404      1.000000
  0.044809 -0.044809  0.000000      1.000000
  0.044809 -0.044809  0.044809      1.000000
  0.022404 -0.022405  0.067213      1.000000
 -0.000000 -0.000000  0.089618      1.000000
 -0.022405  0.022404  0.112022      1.000000
 -0.044809  0.044809  0.134427      1.000000
 -0.067214  0.067213  0.156831      1.000000
  0.156831 -0.156831 -0.067213      1.000000
  0.134427 -0.134427 -0.044809      1.000000
  0.112022 -0.112022 -0.022404      1.000000
  0.089618 -0.089618  0.000000      1.000000
  0.067213 -0.067213  0.022404      1.000000
  0.067213 -0.067213  0.067213      1.000000
  0.044809 -0.044809  0.089618      1.000000
  0.022404 -0.022405  0.112022      1.000000
 -0.000000 -0.000000  0.134427      1.000000
 -0.022405  0.022404  0.156831      1.000000
 -0.044809  0.044809  0.179236      1.000000
  0.179236 -0.179236 -0.044809      1.000000
  0.156831 -0.156831 -0.022404      1.000000
  0.134427 -0.134427  0.000000      1.000000
  0.112022 -0.112022  0.022404      1.000000
  0.089618 -0.089618  0.044809      1.000000
  0.089618 -0.089618  0.089618      1.000000
  0.067213 -0.067214  0.112022      1.000000
  0.044809 -0.044809  0.134427      1.000000
  0.022404 -0.022405  0.156831      1.000000
 -0.000000 -0.000000  0.179236      1.000000
 -0.022405  0.022404  0.201640      1.000000
  0.201640 -0.201640 -0.022404      1.000000
  0.179236 -0.179236  0.000000      1.000000
  0.156831 -0.156831  0.022404      1.000000
  0.134427 -0.134427  0.044809      1.000000
  0.112022 -0.112022  0.067213      1.000000
  0.112022 -0.112022  0.112022      1.000000
  0.089618 -0.089618  0.134427      1.000000
  0.067213 -0.067214  0.156831      1.000000
  0.044809 -0.044809  0.179236      1.000000
  0.022404 -0.022405  0.201640      1.000000
 -0.000000 -0.000000  0.224045      1.000000
  0.224045 -0.224045  0.000000      1.000000
  0.201640 -0.201640  0.022404      1.000000
  0.179236 -0.179236  0.044809      1.000000
  0.156831 -0.156831  0.067213      1.000000
  0.134427 -0.134427  0.089618      1.000000
 -0.112022  0.112022 -0.112022      1.000000
 -0.134427  0.134427 -0.089618      1.000000
 -0.156831  0.156831 -0.067213      1.000000
 -0.179236  0.179236 -0.044809      1.000000
 -0.201640  0.201640 -0.022404      1.000000
 -0.224045  0.224045 -0.000000      1.000000
  0.000000  0.000000 -0.224045      1.000000
 -0.022404  0.022405 -0.201640      1.000000
 -0.044809  0.044809 -0.179236      1.000000
 -0.067213  0.067214 -0.156831      1.000000
 -0.089618  0.089618 -0.134427      1.000000
 -0.089618  0.089618 -0.089618      1.000000
 -0.112022  0.112022 -0.067213      1.000000
 -0.134427  0.134427 -0.044809      1.000000
 -0.156831  0.156831 -0.022404      1.000000
 -0.179236  0.179236 -0.000000      1.000000
 -0.201640  0.201640  0.022404      1.000000
  0.022405 -0.022404 -0.201640      1.000000
  0.000000  0.000000 -0.179236      1.000000
 -0.022404  0.022405 -0.156831      1.000000
 -0.044809  0.044809 -0.134427      1.000000
 -0.067213  0.067214 -0.112022      1.000000
 -0.067213  0.067213 -0.067213      1.000000
 -0.089618  0.089618 -0.044809      1.000000
 -0.112022  0.112022 -0.022404      1.000000
 -0.134427  0.134427 -0.000000      1.000000
 -0.156831  0.156831  0.022404      1.000000
 -0.179236  0.179236  0.044809      1.000000
  0.044809 -0.044809 -0.179236      1.000000
  0.022405 -0.022404 -0.156831      1.000000
  0.000000  0.000000 -0.134427      1.000000
 -0.022404  0.022405 -0.112022      1.000000
 -0.044809  0.044809 -0.089618      1.000000
 -0.044809  0.044809 -0.044809      1.000000
 -0.067213  0.067213 -0.022404      1.000000
 -0.089618  0.089618 -0.000000      1.000000
 -0.112022  0.112022  0.022404      1.000000
 -0.134427  0.134427  0.044809      1.000000
 -0.156831  0.156831  0.067213      1.000000
  0.067214 -0.067213 -0.156831      1.000000
  0.044809 -0.044809 -0.134427      1.000000
  0.022405 -0.022404 -0.112022      1.000000
  0.000000  0.000000 -0.089618      1.000000
 -0.022404  0.022405 -0.067213      1.000000
 -0.022404  0.022404 -0.022404      1.000000
 -0.044809  0.044809 -0.000000      1.000000
 -0.067213  0.067213  0.022404      1.000000
 -0.089618  0.089618  0.044809      1.000000
 -0.112022  0.112022  0.067213      1.000000
 -0.134427  0.134427  0.089618      1.000000
  0.089618 -0.089618 -0.134427      1.000000
  0.067214 -0.067213 -0.112022      1.000000
  0.044809 -0.044809 -0.089618      1.000000
  0.022405 -0.022404 -0.067213      1.000000
  0.000000  0.000000 -0.044809      1.000000
  0.022404  0.022404 -0.022404      1.000000
 -0.000000  0.044809 -0.000000      1.000000
 -0.022405  0.067213  0.022404      1.000000
 -0.044809  0.089618  0.044809      1.000000
 -0.067214  0.112022  0.067213      1.000000
 -0.089618  0.134427  0.089618      1.000000
  0.134427 -0.089618 -0.134427      1.000000
  0.112022 -0.067213 -0.112022      1.000000
  0.089618 -0.044809 -0.089618      1.000000
  0.067213 -0.022404 -0.067213      1.000000
  0.044809 -0.000000 -0.044809      1.000000
  0.044809 -0.000000 -0.000000      1.000000
  0.022404  0.022404  0.022404      1.000000
 -0.000000  0.044809  0.044809      1.000000
 -0.022405  0.067213  0.067213      1.000000
 -0.044809  0.089618  0.089618      1.000000
 -0.067214  0.112022  0.112022      1.000000
  0.156831 -0.112022 -0.112022      1.000000
  0.134427 -0.089618 -0.089618      1.000000
  0.112022 -0.067213 -0.067213      1.000000
  0.089618 -0.044809 -0.044809      1.000000
  0.067213 -0.022404 -0.022404      1.000000
  0.067213 -0.022405  0.022404      1.000000
  0.044809 -0.000000  0.044809      1.000000
  0.022404  0.022404  0.067213      1.000000
 -0.000000  0.044809  0.089618      1.000000
 -0.022405  0.067213  0.112022      1.000000
 -0.044809  0.089618  0.134427      1.000000
  0.179236 -0.134427 -0.089618      1.000000
  0.156831 -0.112022 -0.067213      1.000000
  0.134427 -0.089618 -0.044809      1.000000
  0.112022 -0.067213 -0.022404      1.000000
  0.089618 -0.044809 -0.000000      1.000000
  0.089618 -0.044809  0.044809      1.000000
  0.067213 -0.022405  0.067213      1.000000
  0.044809 -0.000000  0.089618      1.000000
  0.022404  0.022404  0.112022      1.000000
 -0.000000  0.044809  0.134427      1.000000
 -0.022405  0.067213  0.156831      1.000000
  0.201640 -0.156831 -0.067213      1.000000
  0.179236 -0.134427 -0.044809      1.000000
  0.156831 -0.112022 -0.022404      1.000000
  0.134427 -0.089618 -0.000000      1.000000
  0.112022 -0.067213  0.022404      1.000000
  0.112022 -0.067214  0.067213      1.000000
  0.089618 -0.044809  0.089618      1.000000
  0.067213 -0.022405  0.112022      1.000000
  0.044809 -0.000000  0.134427      1.000000
  0.022404  0.022404  0.156831      1.000000
 -0.000000  0.044809  0.179236      1.000000
  0.224045 -0.179236 -0.044809      1.000000
  0.201640 -0.156831 -0.022404      1.000000
  0.179236 -0.134427 -0.000000      1.000000
  0.156831 -0.112022  0.022404      1.000000
  0.134427 -0.089618  0.044809      1.000000
  0.134427 -0.089618  0.089618      1.000000
  0.112022 -0.067214  0.112022      1.000000
  0.089618 -0.044809  0.134427      1.000000
  0.067213 -0.022405  0.156831      1.000000
  0.044809 -0.000000  0.179236      1.000000
  0.022404  0.022404  0.201640      1.000000
  0.246449 -0.201640 -0.022404      1.000000
  0.224045 -0.179236 -0.000000      1.000000
  0.201640 -0.156831  0.022404      1.000000
  0.179236 -0.134427  0.044809      1.000000
  0.156831 -0.112022  0.067213      1.000000
 -0.089618  0.134427 -0.134427      1.000000
 -0.112022  0.156831 -0.112022      1.000000
 -0.134427  0.179236 -0.089618      1.000000
 -0.156831  0.201640 -0.067213      1.000000
 -0.179236  0.224045 -0.044809      1.000000
 -0.201640  0.246449 -0.022404      1.000000
  0.022405  0.022405 -0.246449      1.000000
  0.000000  0.044809 -0.224045      1.000000
 -0.022404  0.067214 -0.201640      1.000000
 -0.044809  0.089618 -0.179236      1.000000
 -0.067213  0.112022 -0.156831      1.000000
 -0.067213  0.112022 -0.112022      1.000000
 -0.089618  0.134427 -0.089618      1.000000
 -0.112022  0.156831 -0.067213      1.000000
 -0.134427  0.179236 -0.044809      1.000000
 -0.156831  0.201640 -0.022404      1.000000
 -0.179236  0.224045 -0.000000      1.000000
  0.044809  0.000000 -0.224045      1.000000
  0.022405  0.022405 -0.201640      1.000000
  0.000000  0.044809 -0.179236      1.000000
 -0.022404  0.067214 -0.156831      1.000000
 -0.044809  0.089618 -0.134427      1.000000
 -0.044809  0.089618 -0.089618      1.000000
 -0.067213  0.112022 -0.067213      1.000000
 -0.089618  0.134427 -0.044809      1.000000
 -0.112022  0.156831 -0.022404      1.000000
 -0.134427  0.179236 -0.000000      1.000000
 -0.156831  0.201640  0.022404      1.000000
  0.067214 -0.022404 -0.201640      1.000000
  0.044809  0.000000 -0.179236      1.000000
  0.022405  0.022405 -0.156831      1.000000
  0.000000  0.044809 -0.134427      1.000000
 -0.022404  0.067213 -0.112022      1.000000
 -0.022404  0.067213 -0.067213      1.000000
 -0.044809  0.089618 -0.044809      1.000000
 -0.067213  0.112022 -0.022404      1.000000
 -0.089618  0.134427 -0.000000      1.000000
 -0.112022  0.156831  0.022404      1.000000
 -0.134427  0.179236  0.044809      1.000000
  0.089618 -0.044809 -0.179236      1.000000
  0.067214 -0.022404 -0.156831      1.000000
  0.044809  0.000000 -0.134427      1.000000
  0.022405  0.022405 -0.112022      1.000000
  0.000000  0.044809 -0.089618      1.000000
 -0.000000  0.044809 -0.044809      1.000000
 -0.022404  0.067213 -0.022404      1.000000
 -0.044809  0.089618 -0.000000      1.000000
 -0.067213  0.112022  0.022404      1.000000
 -0.089618  0.134427  0.044809      1.000000
 -0.112022  0.156831  0.067213      1.000000
  0.112022 -0.067213 -0.156831      1.000000
[...]
      1     -42.0690      2.00000
      2     -20.6025      2.00000
      3      -3.1824      2.00000
      4      -2.1133      2.00000
      5      -1.6534      2.00000
      6      11.1288      0.00000
      7      14.9810      0.00000
      8      17.5769      0.00000
      9      18.4031      0.00000
     10      22.2527      0.00000
     11      30.3176      0.00000
     12      33.3311      0.00000

 k-point  1306 :      -0.3636   -0.2727   -0.0909
  band No.  band energies     occupation 
      1     -42.0796      2.00000
      2     -20.7044      2.00000
      3      -2.8283      2.00000
      4      -1.8467      2.00000
      5      -1.5841      2.00000
      6      10.4543      0.00000
      7      15.9919      0.00000
      8      18.0191      0.00000
      9      18.8460      0.00000
     10      20.9532      0.00000
     11      30.6985      0.00000
     12      33.5100      0.00000

 k-point  1307 :      -0.2727   -0.2727   -0.0909
  band No.  band energies     occupation 
      1     -42.0900      2.00000
      2     -20.8035      2.00000
      3      -2.4389      2.00000
      4      -1.5530      2.00000
      5      -1.5516      2.00000
      6       9.7261      0.00000
      7      17.0153      0.00000
      8      18.6552      0.00000
      9      19.2237      0.00000
     10      20.5969      0.00000
     11      29.8233      0.00000
     12      33.3999      0.00000

 k-point  1308 :      -0.1818   -0.2727   -0.0909
  band No.  band energies     occupation 
      1     -42.0970      2.00000
      2     -20.8701      2.00000
      3      -2.1886      2.00000
      4      -1.5482      2.00000
      5      -1.2842      2.00000
      6       9.1789      0.00000
      7      17.1939      0.00000
      8      19.1204      0.00000
      9      19.5876      0.00000
     10      22.0718      0.00000
     11      28.3785      0.00000
     12      33.4366      0.00000

 k-point  1309 :      -0.0909   -0.2727   -0.0909
  band No.  band energies     occupation 
      1     -42.0983      2.00000
      2     -20.8849      2.00000
      3      -2.2304      2.00000
      4      -1.4625      2.00000
      5      -1.1810      2.00000
      6       8.9880      0.00000
      7      16.9842      0.00000
      8      19.2189      0.00000
      9      19.6747      0.00000
     10      24.6094      0.00000
     11      25.1912      0.00000
     12      33.5156      0.00000

 k-point  1310 :       0.0000   -0.1818   -0.0909
  band No.  band energies     occupation 
      1     -42.1070      2.00000
      2     -20.9520      2.00000
      3      -1.8089      2.00000
      4      -1.3117      2.00000
      5      -1.2601      2.00000
      6       8.5945      0.00000
      7      18.4698      0.00000
      8      20.0587      0.00000
      9      20.2216      0.00000
     10      21.9841      0.00000
     11      26.5740      0.00000
     12      32.5982      0.00000

 k-point  1311 :       0.0909   -0.1818   -0.0909
  band No.  band energies     occupation 
      1     -42.0970      2.00000
      2     -20.8701      2.00000
      3      -2.1886      2.00000
      4      -1.5482      2.00000
      5      -1.2842      2.00000
      6       9.1789      0.00000
      7      17.1939      0.00000
      8      19.1204      0.00000
      9      19.5876      0.00000
     10      22.0718      0.00000
     11      28.2169      0.00000
     12      33.4644      0.00000

 k-point  1312 :       0.1818   -0.1818   -0.0909
  band No.  band energies     occupation 
      1     -42.0839      2.00000
      2     -20.7588      2.00000
      3      -2.7095      2.00000
      4      -1.7574      2.00000
      5      -1.3449      2.00000
      6       9.8478      0.00000
      7      15.8080      0.00000
      8      18.4415      0.00000
      9      18.7700      0.00000
     10      23.2431      0.00000
     11      28.9176      0.00000
     12      34.1675      0.00000

 k-point  1313 :       0.2727   -0.1818   -0.0909
  band No.  band energies     occupation 
      1     -42.0719      2.00000
      2     -20.6533      2.00000
      3      -3.1830      2.00000
      4      -1.8879      2.00000
      5      -1.4331      2.00000
      6      10.3087      0.00000
      7      15.0103      0.00000
      8      17.9184      0.00000
      9      18.1595      0.00000
     10      24.8149      0.00000
     11      29.2458      0.00000
     12      34.5849      0.00000

 k-point  1314 :       0.3636   -0.1818   -0.0909
  band No.  band energies     occupation 
      1     -42.0648      2.00000
      2     -20.5891      2.00000
      3      -3.4578      2.00000
      4      -1.9481      2.00000
      5      -1.4974      2.00000
      6      10.4718      0.00000
      7      14.7564      0.00000
      8      17.6894      0.00000
      9      17.7868      0.00000
     10      26.4467      0.00000
     11      28.5903      0.00000
     12      34.1214      0.00000

 k-point  1315 :       0.4545   -0.1818   -0.0909
  band No.  band energies     occupation 
      1     -42.0648      2.00000
      2     -20.5891      2.00000
      3      -3.4578      2.00000
      4      -1.9481      2.00000
      5      -1.4974      2.00000
      6      10.4718      0.00000
      7      14.7564      0.00000
      8      17.6894      0.00000
      9      17.7868      0.00000
     10      26.4471      0.00000
     11      28.5888      0.00000
     12      34.1354      0.00000

 k-point  1316 :      -0.4545   -0.1818   -0.0909
  band No.  band energies     occupation 
      1     -42.0719      2.00000
      2     -20.6533      2.00000
      3      -3.1830      2.00000
      4      -1.8879      2.00000
      5      -1.4331      2.00000
      6      10.3087      0.00000
      7      15.0103      0.00000
      8      17.9184      0.00000
      9      18.1594      0.00000
     10      24.8147      0.00000
     11      29.2545      0.00000
     12      34.4662      0.00000

 k-point  1317 :      -0.3636   -0.1818   -0.0909
  band No.  band energies     occupation 
      1     -42.0839      2.00000
      2     -20.7588      2.00000
      3      -2.7095      2.00000
      4      -1.7574      2.00000
      5      -1.3449      2.00000
      6       9.8478      0.00000
      7      15.8080      0.00000
      8      18.4415      0.00000
      9      18.7700      0.00000
     10      23.2432      0.00000
     11      28.9126      0.00000
     12      34.1788      0.00000

 k-point  1318 :      -0.2727   -0.1818   -0.0909
  band No.  band energies     occupation 
      1     -42.0970      2.00000
      2     -20.8701      2.00000
      3      -2.1886      2.00000
      4      -1.5482      2.00000
      5      -1.2842      2.00000
      6       9.1789      0.00000
      7      17.1939      0.00000
      8      19.1204      0.00000
      9      19.5876      0.00000
     10      22.0718      0.00000
     11      28.3782      0.00000
     12      33.4401      0.00000

 k-point  1319 :      -0.1818   -0.1818   -0.0909
  band No.  band energies     occupation 
      1     -42.1070      2.00000
      2     -20.9520      2.00000
      3      -1.8089      2.00000
      4      -1.3117      2.00000
      5      -1.2601      2.00000
      6       8.5945      0.00000
      7      18.4698      0.00000
      8      20.0587      0.00000
      9      20.2223      0.00000
     10      21.9842      0.00000
     11      26.6041      0.00000
     12      32.5982      0.00000

 k-point  1320 :      -0.0909   -0.1818   -0.0909
  band No.  band energies     occupation 
      1     -42.1107      2.00000
      2     -20.9820      2.00000
      3      -1.6667      2.00000
      4      -1.3153      2.00000
      5      -1.1494      2.00000
      6       8.3626      0.00000
      7      18.8261      0.00000
      8      20.0926      0.00000
      9      20.9553      0.00000
     10      23.5572      0.00000
     11      24.9573      0.00000
     12      32.0058      0.00000

 k-point  1321 :       0.0000   -0.0909   -0.0909
  band No.  band energies     occupation 
      1     -42.1158      2.00000
      2     -21.0203      2.00000
      3      -1.3608      2.00000
      4      -1.2274      2.00000
      5      -1.2273      2.00000
      6       8.0884      0.00000
      7      20.8896      0.00000
      8      20.8897      0.00000
      9      21.1004      0.00000
     10      21.3979      0.00000
     11      30.2942      0.00000
     12      31.3727      0.00000

 k-point  1322 :       0.0909   -0.0909   -0.0909
  band No.  band energies     occupation 
      1     -42.1070      2.00000
      2     -20.9520      2.00000
      3      -1.8089      2.00000
      4      -1.3117      2.00000
      5      -1.2601      2.00000
      6       8.5946      0.00000
      7      18.4698      0.00000
      8      20.0587      0.00000
      9      20.2223      0.00000
     10      21.9841      0.00000
     11      26.6039      0.00000
     12      32.6055      0.00000

 k-point  1323 :       0.1818   -0.0909   -0.0909
  band No.  band energies     occupation 
      1     -42.0933      2.00000
      2     -20.8440      2.00000
      3      -2.4548      2.00000
      4      -1.3914      2.00000
      5      -1.3255      2.00000
      6       9.2342      0.00000
      7      16.6105      0.00000
      8      19.0621      0.00000
      9      19.1491      0.00000
     10      23.2989      0.00000
     11      27.7381      0.00000
     12      33.6246      0.00000

 k-point  1324 :       0.2727   -0.0909   -0.0909
  band No.  band energies     occupation 
      1     -42.0794      2.00000
      2     -20.7293      2.00000
      3      -3.0572      2.00000
      4      -1.4414      2.00000
      5      -1.4253      2.00000
      6       9.6890      0.00000
      7      15.5555      0.00000
      8      18.1943      0.00000
      9      18.3475      0.00000
     10      24.9399      0.00000
     11      28.9376      0.00000
     12      33.2939      0.00000

 k-point  1325 :       0.3636   -0.0909   -0.0909
  band No.  band energies     occupation 
      1     -42.0694      2.00000
      2     -20.6455      2.00000
      3      -3.4558      2.00000
      4      -1.5264      2.00000
      5      -1.4467      2.00000
      6       9.8449      0.00000
      7      15.1699      0.00000
      8      17.7184      0.00000
      9      17.8136      0.00000
     10      26.7535      0.00000
     11      29.8077      0.00000
     12      32.6403      0.00000

 k-point  1326 :       0.4545   -0.0909   -0.0909
  band No.  band energies     occupation 
      1     -42.0668      2.00000
      2     -20.6229      2.00000
      3      -3.5575      2.00000
      4      -1.5958      2.00000
      5      -1.4067      2.00000
      6       9.8544      0.00000
      7      15.0934      0.00000
      8      17.6381      0.00000
      9      17.6473      0.00000
     10      28.1966      0.00000
     11      29.5113      0.00000
     12      33.2518      0.00000

 k-point  1327 :      -0.4545   -0.0909   -0.0909
  band No.  band energies     occupation 
      1     -42.0721      2.00000
      2     -20.6692      2.00000
      3      -3.3401      2.00000
      4      -1.6108      2.00000
      5      -1.3338      2.00000
      6       9.8005      0.00000
      7      15.1932      0.00000
      8      17.9015      0.00000
      9      17.9098      0.00000
     10      27.7457      0.00000
     11      28.0148      0.00000
     12      30.9401      0.00000

 k-point  1328 :      -0.3636   -0.0909   -0.0909
  band No.  band energies     occupation 
      1     -42.0838      2.00000
      2     -20.7682      2.00000
      3      -2.8559      2.00000
      4      -1.5640      2.00000
      5      -1.2500      2.00000
      6       9.5391      0.00000
      7      15.7285      0.00000
      8      18.4713      0.00000
      9      18.5898      0.00000
     10      26.1980      0.00000
     11      26.8524      0.00000
     12      34.6684      0.00000

 k-point  1329 :      -0.2727   -0.0909   -0.0909
  band No.  band energies     occupation 
      1     -42.0983      2.00000
      2     -20.8849      2.00000
      3      -2.2304      2.00000
      4      -1.4625      2.00000
      5      -1.1810      2.00000
      6       8.9880      0.00000
      7      16.9842      0.00000
      8      19.2189      0.00000
      9      19.6747      0.00000
     10      24.6094      0.00000
     11      25.1976      0.00000
     12      33.5235      0.00000

 k-point  1330 :      -0.1818   -0.0909   -0.0909
  band No.  band energies     occupation 
      1     -42.1107      2.00000
      2     -20.9820      2.00000
      3      -1.6667      2.00000
      4      -1.3153      2.00000
      5      -1.1494      2.00000
      6       8.3626      0.00000
      7      18.8261      0.00000
      8      20.0921      0.00000
      9      20.9553      0.00000
     10      23.5572      0.00000
     11      25.8445      0.00000
     12      32.0073      0.00000

 k-point  1331 :      -0.0909   -0.0909   -0.0909
  band No.  band energies     occupation 
      1     -42.1171      2.00000
      2     -21.0312      2.00000
      3      -1.3829      2.00000
      4      -1.1665      2.00000
      5      -1.1665      2.00000
      6       7.9919      0.00000
      7      20.1811      0.00000
      8      21.4494      0.00000
      9      21.4494      0.00000
     10      23.8646      0.00000
     11      23.8648      0.00000
     12      30.6915      0.00000


--------------------------------------------------------------------------------------------------------


 soft charge-density along one line, spin component           1
         0         1         2         3         4         5         6         7         8         9
 total charge-density along one line
 
 pseudopotential strength for first ion, spin component:           1
-38.694   3.441   0.000   0.000  -0.000
  3.441  -9.842   0.000   0.000  -0.000
  0.000   0.000   0.176  -0.000  -0.000
  0.000   0.000  -0.000   0.176  -0.000
 -0.000  -0.000  -0.000  -0.000   0.176
 total augmentation occupancy for first ion, spin component:           1
  2.000  -0.009  -0.000  -0.000   0.000
 -0.009   0.609  -0.000  -0.000   0.000
 -0.000  -0.000   0.022  -0.000   0.000
 -0.000  -0.000  -0.000   0.022   0.000
  0.000   0.000   0.000   0.000   0.022


------------------------ aborting loop because EDIFF is reached ----------------------------------------


    CHARGE:  cpu time    0.1303: real time    0.1306
    FORLOC:  cpu time    0.0004: real time    0.0004
    FORNL :  cpu time    0.1029: real time    0.1030
    STRESS:  cpu time    0.7596: real time    0.7607
    FORCOR:  cpu time    0.0039: real time    0.0039
    FORHAR:  cpu time    0.0010: real time    0.0010
    MIXING:  cpu time    0.0006: real time    0.0006
    OFIELD:  cpu time    0.0001: real time    0.0001

  FORCE on cell =-STRESS in cart. coord.  units (eV):
  Direction    XX          YY          ZZ          XY          YZ          ZX
  --------------------------------------------------------------------------------------
  Alpha Z    19.61696    19.61696    19.61696
  Ewald    -184.35547  -184.35548  -184.35547     0.00004     0.00004     0.00004
  Hartree    76.34552    76.34552    76.34552    -0.00002    -0.00002    -0.00002
  E(xc)     -54.24922   -54.24922   -54.24923     0.00001     0.00001     0.00001
  Local     -40.35389   -40.35388   -40.35390    -0.00003    -0.00003    -0.00004
  n-local   -55.29053   -55.29053   -55.29053     0.00000     0.00000    -0.00000
  augment    36.19240    36.19240    36.19240     0.00002     0.00002     0.00003
  Kinetic   202.09052   202.09052   202.09052     0.00002     0.00002     0.00003
  Fock        0.00000     0.00000     0.00000     0.00000     0.00000     0.00000
  -------------------------------------------------------------------------------------
  Total      -0.00373    -0.00372    -0.00373     0.00004     0.00004     0.00004
  in kB      -0.35749    -0.35720    -0.35736     0.00374     0.00388     0.00365
  external pressure =       -0.36 kB  Pullay stress =        0.00 kB


 VOLUME and BASIS-vectors are now :
 -----------------------------------------------------------------------------
  energy-cutoff  :      520.00
  volume of cell :       16.70
      direct lattice vectors                 reciprocal lattice vectors
     0.000003627  2.028818776  2.028818734    -0.246449483  0.246449046  0.246449046
     2.028818761  0.000003634  2.028818726     0.246449048 -0.246449483  0.246449048
     2.028818808  2.028818815  0.000003588     0.246449037  0.246449037 -0.246449483

  length of vectors
     2.869182999  2.869182983  2.869183079     0.426862522  0.426862524  0.426862511


 FORCES acting on ions
    electron-ion (+dipol)            ewald-force                    non-local-force                 convergence-correction
 -----------------------------------------------------------------------------------------------
   0.803E-05 -.993E-06 -.478E-06   -.469E-05 -.314E-05 -.238E-05   0.105E-05 0.143E-05 -.181E-05   -.322E-05 0.353E-06 0.391E-05
   -.737E-04 0.181E-04 0.608E-04   0.469E-05 0.314E-05 0.238E-05   -.574E-04 0.237E-04 0.544E-04   0.125E-03 -.442E-04 -.115E-03
 -----------------------------------------------------------------------------------------------
   -.657E-04 0.172E-04 0.603E-04   0.217E-15 0.611E-16 0.355E-15   -.564E-04 0.252E-04 0.526E-04   0.121E-03 -.439E-04 -.111E-03
 
 
 POSITION                                       TOTAL-FORCE (eV/Angst)
 -----------------------------------------------------------------------------------
      0.00000      0.00000      0.00000         0.000002     -0.000002     -0.000002
      2.02882      2.02882      2.02882        -0.000002      0.000002      0.000002
 -----------------------------------------------------------------------------------
    total drift:                               -0.000001     -0.000002      0.000002


--------------------------------------------------------------------------------------------------------



  FREE ENERGIE OF THE ION-ELECTRON SYSTEM (eV)
  ---------------------------------------------------
  free  energy   TOTEN  =        -9.64064840 eV

  energy  without entropy=       -9.64064840  energy(sigma->0) =       -9.64064840
 


--------------------------------------------------------------------------------------------------------


    POTLOK:  cpu time    0.0694: real time    0.0695


--------------------------------------------------------------------------------------------------------


 stress matrix after NEB project (eV)
     -0.00373      0.00004      0.00004
      0.00004     -0.00372      0.00004
      0.00004      0.00004     -0.00373
  FORCES: max atom, RMS     0.000003    0.000003
  FORCE total and by dimension    0.000004    0.000002
  Stress total and by dimension    0.006453    0.003727
 writing wavefunctions
     LOOP+:  cpu time   90.4167: real time   93.8731
    4ORBIT:  cpu time    0.0000: real time    0.0000

 total amount of memory used by VASP MPI-rank0    60448. kBytes
=======================================================================

   base      :      30000. kBytes
   nonl-proj :      21129. kBytes
   fftplans  :        344. kBytes
   grid      :        539. kBytes
   one-center:          3. kBytes
   wavefun   :       8433. kBytes
 
  
  
 General timing and accounting informations for this job:
 ========================================================
  
                  Total CPU time used (sec):       94.094
                            User time (sec):       85.251
                          System time (sec):        8.843
                         Elapsed time (sec):      163.358
  
                   Maximum memory used (kb):       95988.
                   Average memory used (kb):           0.
  
                          Minor page faults:       218008
                          Major page faults:            0
                 Voluntary context switches:          904
