<?xml version="1.0" encoding="ISO-8859-1"?>
<modeling>
 <generator>
  <i name="program" type="string">vasp </i>
  <i name="version" type="string">5.4.4.18Apr17-6-g9f103f2a35  </i>
  <i name="subversion" type="string">(build Nov 08 2022 17:27:33) complex            parallel </i>
  <i name="platform" type="string">LinuxIFC </i>
  <i name="date" type="string">2022 12 09 </i>
  <i name="time" type="string">15:53:32 </i>
 </generator>
 <incar>
  <i type="int" name="ISTART">     0</i>
  <i type="string" name="PREC">accurate</i>
  <i type="string" name="ALGO"> Fast</i>
  <i type="int" name="ISPIN">     1</i>
  <i type="int" name="ICHARG">     0</i>
  <i type="int" name="NELM">   100</i>
  <i type="int" name="IBRION">     2</i>
  <i name="EDIFF">      0.00000100</i>
  <i name="EDIFFG">     -0.03000000</i>
  <i type="int" name="NSW">     0</i>
  <i type="int" name="ISIF">     3</i>
  <i type="int" name="ISYM">    -1</i>
  <i name="ENCUT">    520.00000000</i>
  <i name="ENAUG">   1040.00000000</i>
  <i type="int" name="NBANDS">     9</i>
  <i type="int" name="NEDOS">  4000</i>
  <v name="MAGMOM">      0.00000000      0.00000000</v>
  <i type="logical" name="LREAL"> F  </i>
  <i type="int" name="ISMEAR">     0</i>
  <i name="SIGMA">      0.01000000</i>
  <i type="logical" name="LWAVE"> T  </i>
  <i type="logical" name="LCHARG"> T  </i>
  <i type="logical" name="LVHAR"> T  </i>
  <i type="int" name="LORBIT">     0</i>
  <i type="logical" name="LASPH"> T  </i>
  <i type="logical" name="LAECHG"> T  </i>
  <v type="int" name="KPOINT_BSE">    -1     0     0     0</v>
  <i type="int" name="NELM">   100</i>
  <i type="string" name="GGA"> Pe</i>
  <i type="logical" name="LASPH"> T  </i>
 </incar>
 <structure name="primitive_cell" >
  <crystal>
   <varray name="basis" >
    <v>       0.00000363       2.02881878       2.02881873 </v>
    <v>       2.02881876       0.00000363       2.02881873 </v>
    <v>       2.02881881       2.02881882       0.00000359 </v>
   </varray>
   <i name="volume">     16.70161995 </i>
   <varray name="rec_basis" >
    <v>      -0.24644948       0.24644905       0.24644905 </v>
    <v>       0.24644905      -0.24644948       0.24644905 </v>
    <v>       0.24644904       0.24644904      -0.24644948 </v>
   </varray>
  </crystal>
  <varray name="positions" >
   <v>       0.00000000       0.00000001       0.00000001 </v>
   <v>       0.50000000       0.49999999       0.49999999 </v>
  </varray>
 </structure>
 <varray name="primitive_index" >
  <v type="int" >        1 </v>
  <v type="int" >        2 </v>
 </varray>
 <kpoints>
  <generation param="Auto">
   <i name="subdivisionlength">     25.00000000 </i>
   <v type="int" name="divisions">      11       11       11 </v>
   <v name="usershift">      0.00000000       0.00000000       0.00000000 </v>
   <v name="genvec1">      0.09090909       0.00000000      -0.00000000 </v>
   <v name="genvec2">      0.00000000       0.09090909       0.00000000 </v>
   <v name="genvec3">      0.00000000       0.00000000       0.09090909 </v>
   <v name="shift">      0.00000000       0.00000000       0.00000000 </v>
  </generation>
  <varray name="kpointlist" >
   <v>       0.00000000       0.00000000       0.00000000 </v>
   <v>       0.09090909       0.00000000      -0.00000000 </v>
   <v>       0.18181818       0.00000000      -0.00000000 </v>
   <v>       0.27272727       0.00000000      -0.00000000 </v>
   <v>       0.36363636       0.00000000      -0.00000000 </v>
   <v>       0.45454545       0.00000000      -0.00000000 </v>
   <v>      -0.45454545       0.00000000       0.00000000 </v>
   <v>      -0.36363636       0.00000000       0.00000000 </v>
   <v>      -0.27272727       0.00000000       0.00000000 </v>
   <v>      -0.18181818       0.00000000       0.00000000 </v>
   <v>      -0.09090909       0.00000000       0.00000000 </v>
   <v>       0.00000000       0.09090909       0.00000000 </v>
   <v>       0.09090909       0.09090909       0.00000000 </v>
   <v>       0.18181818       0.09090909      -0.00000000 </v>
   <v>       0.27272727       0.09090909       0.00000000 </v>
   <v>       0.36363636       0.09090909       0.00000000 </v>
   <v>       0.45454545       0.09090909       0.00000000 </v>
   <v>      -0.45454545       0.09090909      -0.00000000 </v>
   <v>      -0.36363636       0.09090909       0.00000000 </v>
   <v>      -0.27272727       0.09090909      -0.00000000 </v>
   <v>      -0.18181818       0.09090909       0.00000000 </v>
   <v>      -0.09090909       0.09090909       0.00000000 </v>
   <v>       0.00000000       0.18181818       0.00000000 </v>
   <v>       0.09090909       0.18181818       0.00000000 </v>
   <v>       0.18181818       0.18181818       0.00000000 </v>
   <v>       0.27272727       0.18181818       0.00000000 </v>
   <v>       0.36363636       0.18181818      -0.00000000 </v>
   <v>       0.45454545       0.18181818      -0.00000000 </v>
   <v>      -0.45454545       0.18181818       0.00000000 </v>
   <v>      -0.36363636       0.18181818       0.00000000 </v>
   <v>      -0.27272727       0.18181818      -0.00000000 </v>
   <v>      -0.18181818       0.18181818       0.00000000 </v>
   <v>      -0.09090909       0.18181818       0.00000000 </v>
   <v>       0.00000000       0.27272727       0.00000000 </v>
   <v>       0.09090909       0.27272727       0.00000000 </v>
   <v>       0.18181818       0.27272727       0.00000000 </v>
   <v>       0.27272727       0.27272727       0.00000000 </v>
   <v>       0.36363636       0.27272727       0.00000000 </v>
   <v>       0.45454545       0.27272727       0.00000000 </v>
   <v>      -0.45454545       0.27272727      -0.00000000 </v>
   <v>      -0.36363636       0.27272727      -0.00000000 </v>
   <v>      -0.27272727       0.27272727      -0.00000000 </v>
   <v>      -0.18181818       0.27272727       0.00000000 </v>
   <v>      -0.09090909       0.27272727       0.00000000 </v>
   <v>       0.00000000       0.36363636       0.00000000 </v>
   <v>       0.09090909       0.36363636       0.00000000 </v>
   <v>       0.18181818       0.36363636       0.00000000 </v>
   <v>       0.27272727       0.36363636       0.00000000 </v>
   <v>       0.36363636       0.36363636       0.00000000 </v>
   <v>       0.45454545       0.36363636       0.00000000 </v>
   <v>      -0.45454545       0.36363636      -0.00000000 </v>
   <v>      -0.36363636       0.36363636       0.00000000 </v>
   <v>      -0.27272727       0.36363636      -0.00000000 </v>
   <v>      -0.18181818       0.36363636       0.00000000 </v>
   <v>      -0.09090909       0.36363636      -0.00000000 </v>
   <v>       0.00000000       0.45454545       0.00000000 </v>
   <v>       0.09090909       0.45454545       0.00000000 </v>
   <v>       0.18181818       0.45454545       0.00000000 </v>
   <v>       0.27272727       0.45454545       0.00000000 </v>
   <v>       0.36363636       0.45454545       0.00000000 </v>
   <v>       0.45454545       0.45454545       0.00000000 </v>
   <v>      -0.45454545       0.45454545       0.00000000 </v>
   <v>      -0.36363636       0.45454545       0.00000000 </v>
   <v>      -0.27272727       0.45454545       0.00000000 </v>
   <v>      -0.18181818       0.45454545       0.00000000 </v>
   <v>      -0.09090909       0.45454545       0.00000000 </v>
   <v>      -0.00000000      -0.45454545      -0.00000000 </v>
   <v>       0.09090909      -0.45454545      -0.00000000 </v>
   <v>       0.18181818      -0.45454545      -0.00000000 </v>
   <v>       0.27272727      -0.45454545      -0.00000000 </v>
   <v>       0.36363636      -0.45454545      -0.00000000 </v>
   <v>       0.45454545      -0.45454545      -0.00000000 </v>
   <v>      -0.45454545      -0.45454545      -0.00000000 </v>
   <v>      -0.36363636      -0.45454545      -0.00000000 </v>
   <v>      -0.27272727      -0.45454545      -0.00000000 </v>
   <v>      -0.18181818      -0.45454545      -0.00000000 </v>
   <v>      -0.09090909      -0.45454545      -0.00000000 </v>
   <v>      -0.00000000      -0.36363636      -0.00000000 </v>
   <v>       0.09090909      -0.36363636       0.00000000 </v>
   <v>       0.18181818      -0.36363636      -0.00000000 </v>
   <v>       0.27272727      -0.36363636       0.00000000 </v>
   <v>       0.36363636      -0.36363636      -0.00000000 </v>
   <v>       0.45454545      -0.36363636      -0.00000000 </v>
   <v>      -0.45454545      -0.36363636      -0.00000000 </v>
   <v>      -0.36363636      -0.36363636      -0.00000000 </v>
   <v>      -0.27272727      -0.36363636      -0.00000000 </v>
   <v>      -0.18181818      -0.36363636      -0.00000000 </v>
   <v>      -0.09090909      -0.36363636      -0.00000000 </v>
   <v>      -0.00000000      -0.27272727      -0.00000000 </v>
   <v>       0.09090909      -0.27272727      -0.00000000 </v>
   <v>       0.18181818      -0.27272727      -0.00000000 </v>
   <v>       0.27272727      -0.27272727       0.00000000 </v>
   <v>       0.36363636      -0.27272727       0.00000000 </v>
   <v>       0.45454545      -0.27272727      -0.00000000 </v>
   <v>      -0.45454545      -0.27272727      -0.00000000 </v>
   <v>      -0.36363636      -0.27272727      -0.00000000 </v>
   <v>      -0.27272727      -0.27272727      -0.00000000 </v>
   <v>      -0.18181818      -0.27272727      -0.00000000 </v>
   <v>      -0.09090909      -0.27272727      -0.00000000 </v>
   <v>      -0.00000000      -0.18181818      -0.00000000 </v>
   <v>       0.09090909      -0.18181818      -0.00000000 </v>
   <v>       0.18181818      -0.18181818      -0.00000000 </v>
   <v>       0.27272727      -0.18181818       0.00000000 </v>
   <v>       0.36363636      -0.18181818      -0.00000000 </v>
   <v>       0.45454545      -0.18181818      -0.00000000 </v>
   <v>      -0.45454545      -0.18181818      -0.00000000 </v>
   <v>      -0.36363636      -0.18181818       0.00000000 </v>
   <v>      -0.27272727      -0.18181818      -0.00000000 </v>
   <v>      -0.18181818      -0.18181818      -0.00000000 </v>
   <v>      -0.09090909      -0.18181818      -0.00000000 </v>
   <v>      -0.00000000      -0.09090909      -0.00000000 </v>
   <v>       0.09090909      -0.09090909      -0.00000000 </v>
   <v>       0.18181818      -0.09090909      -0.00000000 </v>
   <v>       0.27272727      -0.09090909       0.00000000 </v>
   <v>       0.36363636      -0.09090909      -0.00000000 </v>
   <v>       0.45454545      -0.09090909       0.00000000 </v>
   <v>      -0.45454545      -0.09090909      -0.00000000 </v>
   <v>      -0.36363636      -0.09090909      -0.00000000 </v>
   <v>      -0.27272727      -0.09090909      -0.00000000 </v>
   <v>      -0.18181818      -0.09090909       0.00000000 </v>
   <v>      -0.09090909      -0.09090909      -0.00000000 </v>
   <v>      -0.00000000      -0.00000000       0.09090909 </v>
   <v>       0.09090909      -0.00000000       0.09090909 </v>
   <v>       0.18181818      -0.00000000       0.09090909 </v>
   <v>       0.27272727      -0.00000000       0.09090909 </v>
   <v>       0.36363636       0.00000000       0.09090909 </v>
   <v>       0.45454545       0.00000000       0.09090909 </v>
   <v>      -0.45454545       0.00000000       0.09090909 </v>
   <v>      -0.36363636       0.00000000       0.09090909 </v>
   <v>      -0.27272727       0.00000000       0.09090909 </v>
   <v>      -0.18181818       0.00000000       0.09090909 </v>
   <v>      -0.09090909      -0.00000000       0.09090909 </v>
   <v>      -0.00000000       0.09090909       0.09090909 </v>
   <v>       0.09090909       0.09090909       0.09090909 </v>
   <v>       0.18181818       0.09090909       0.09090909 </v>
   <v>       0.27272727       0.09090909       0.09090909 </v>
   <v>       0.36363636       0.09090909       0.09090909 </v>
   <v>       0.45454545       0.09090909       0.09090909 </v>
   <v>      -0.45454545       0.09090909       0.09090909 </v>
   <v>      -0.36363636       0.09090909       0.09090909 </v>
   <v>      -0.27272727       0.09090909       0.09090909 </v>
   <v>      -0.18181818       0.09090909       0.09090909 </v>
   <v>      -0.09090909       0.09090909       0.09090909 </v>
   <v>       0.00000000       0.18181818       0.09090909 </v>
   <v>       0.09090909       0.18181818       0.09090909 </v>
   <v>       0.18181818       0.18181818       0.09090909 </v>
   <v>       0.27272727       0.18181818       0.09090909 </v>
   <v>       0.36363636       0.18181818       0.09090909 </v>
   <v>       0.45454545       0.18181818       0.09090909 </v>
   <v>      -0.45454545       0.18181818       0.09090909 </v>
   <v>      -0.36363636       0.18181818       0.09090909 </v>
   <v>      -0.27272727       0.18181818       0.09090909 </v>
   <v>      -0.18181818       0.18181818       0.09090909 </v>
   <v>      -0.09090909       0.18181818       0.09090909 </v>
   <v>       0.00000000       0.27272727       0.09090909 </v>
   <v>       0.09090909       0.27272727       0.09090909 </v>
   <v>       0.18181818       0.27272727       0.09090909 </v>
   <v>       0.27272727       0.27272727       0.09090909 </v>
   <v>       0.36363636       0.27272727       0.09090909 </v>
   <v>       0.45454545       0.27272727       0.09090909 </v>
   <v>      -0.45454545       0.27272727       0.09090909 </v>
   <v>      -0.36363636       0.27272727       0.09090909 </v>
   <v>      -0.27272727       0.27272727       0.09090909 </v>
   <v>      -0.18181818       0.27272727       0.09090909 </v>
   <v>      -0.09090909       0.27272727       0.09090909 </v>
   <v>       0.00000000       0.36363636       0.09090909 </v>
   <v>       0.09090909       0.36363636       0.09090909 </v>
   <v>       0.18181818       0.36363636       0.09090909 </v>
   <v>       0.27272727       0.36363636       0.09090909 </v>
   <v>       0.36363636       0.36363636       0.09090909 </v>
   <v>       0.45454545       0.36363636       0.09090909 </v>
   <v>      -0.45454545       0.36363636       0.09090909 </v>
   <v>      -0.36363636       0.36363636       0.09090909 </v>
   <v>      -0.27272727       0.36363636       0.09090909 </v>
   <v>      -0.18181818       0.36363636       0.09090909 </v>
   <v>      -0.09090909       0.36363636       0.09090909 </v>
   <v>       0.00000000       0.45454545       0.09090909 </v>
   <v>       0.09090909       0.45454545       0.09090909 </v>
   <v>       0.18181818       0.45454545       0.09090909 </v>
   <v>       0.27272727       0.45454545       0.09090909 </v>
   <v>       0.36363636       0.45454545       0.09090909 </v>
   <v>       0.45454545       0.45454545       0.09090909 </v>
   <v>      -0.45454545       0.45454545       0.09090909 </v>
   <v>      -0.36363636       0.45454545       0.09090909 </v>
   <v>      -0.27272727       0.45454545       0.09090909 </v>
   <v>      -0.18181818       0.45454545       0.09090909 </v>
   <v>      -0.09090909       0.45454545       0.09090909 </v>
   <v>      -0.00000000      -0.45454545       0.09090909 </v>
   <v>       0.09090909      -0.45454545       0.09090909 </v>
   <v>       0.18181818      -0.45454545       0.09090909 </v>
   <v>       0.27272727      -0.45454545       0.09090909 </v>
   <v>       0.36363636      -0.45454545       0.09090909 </v>
   <v>       0.45454545      -0.45454545       0.09090909 </v>
   <v>      -0.45454545      -0.45454545       0.09090909 </v>
   <v>      -0.36363636      -0.45454545       0.09090909 </v>
   <v>      -0.27272727      -0.45454545       0.09090909 </v>
   <v>      -0.18181818      -0.45454545       0.09090909 </v>
   <v>      -0.09090909      -0.45454545       0.09090909 </v>
   <v>       0.00000000      -0.36363636       0.09090909 </v>
   <v>       0.09090909      -0.36363636       0.09090909 </v>
   <v>       0.18181818      -0.36363636       0.09090909 </v>
   <v>       0.27272727      -0.36363636       0.09090909 </v>
   <v>       0.36363636      -0.36363636       0.09090909 </v>
   <v>       0.45454545      -0.36363636       0.09090909 </v>
   <v>      -0.45454545      -0.36363636       0.09090909 </v>
   <v>      -0.36363636      -0.36363636       0.09090909 </v>
   <v>      -0.27272727      -0.36363636       0.09090909 </v>
   <v>      -0.18181818      -0.36363636       0.09090909 </v>
   <v>      -0.09090909      -0.36363636       0.09090909 </v>
   <v>      -0.00000000      -0.27272727       0.09090909 </v>
   <v>       0.09090909      -0.27272727       0.09090909 </v>
   <v>       0.18181818      -0.27272727       0.09090909 </v>
   <v>       0.27272727      -0.27272727       0.09090909 </v>
   <v>       0.36363636      -0.27272727       0.09090909 </v>
   <v>       0.45454545      -0.27272727       0.09090909 </v>
   <v>      -0.45454545      -0.27272727       0.09090909 </v>
   <v>      -0.36363636      -0.27272727       0.09090909 </v>
   <v>      -0.27272727      -0.27272727       0.09090909 </v>
   <v>      -0.18181818      -0.27272727       0.09090909 </v>
   <v>      -0.09090909      -0.27272727       0.09090909 </v>
   <v>      -0.00000000      -0.18181818       0.09090909 </v>
   <v>       0.09090909      -0.18181818       0.09090909 </v>
   <v>       0.18181818      -0.18181818       0.09090909 </v>
   <v>       0.27272727      -0.18181818       0.09090909 </v>
   <v>       0.36363636      -0.18181818       0.09090909 </v>
   <v>       0.45454545      -0.18181818       0.09090909 </v>
   <v>      -0.45454545      -0.18181818       0.09090909 </v>
   <v>      -0.36363636      -0.18181818       0.09090909 </v>
   <v>      -0.27272727      -0.18181818       0.09090909 </v>
   <v>      -0.18181818      -0.18181818       0.09090909 </v>
   <v>      -0.09090909      -0.18181818       0.09090909 </v>
   <v>      -0.00000000      -0.09090909       0.09090909 </v>
   <v>       0.09090909      -0.09090909       0.09090909 </v>
   <v>       0.18181818      -0.09090909       0.09090909 </v>
   <v>       0.27272727      -0.09090909       0.09090909 </v>
   <v>       0.36363636      -0.09090909       0.09090909 </v>
   <v>       0.45454545      -0.09090909       0.09090909 </v>
   <v>      -0.45454545      -0.09090909       0.09090909 </v>
   <v>      -0.36363636      -0.09090909       0.09090909 </v>
   <v>      -0.27272727      -0.09090909       0.09090909 </v>
   <v>      -0.18181818      -0.09090909       0.09090909 </v>
   <v>      -0.09090909      -0.09090909       0.09090909 </v>
   <v>      -0.00000000      -0.00000000       0.18181818 </v>
   <v>       0.09090909      -0.00000000       0.18181818 </v>
   <v>       0.18181818      -0.00000000       0.18181818 </v>
   <v>       0.27272727      -0.00000000       0.18181818 </v>
   <v>       0.36363636      -0.00000000       0.18181818 </v>
   <v>       0.45454545       0.00000000       0.18181818 </v>
   <v>      -0.45454545      -0.00000000       0.18181818 </v>
   <v>      -0.36363636       0.00000000       0.18181818 </v>
   <v>      -0.27272727       0.00000000       0.18181818 </v>
   <v>      -0.18181818      -0.00000000       0.18181818 </v>
   <v>      -0.09090909       0.00000000       0.18181818 </v>
   <v>      -0.00000000       0.09090909       0.18181818 </v>
   <v>       0.09090909       0.09090909       0.18181818 </v>
   <v>       0.18181818       0.09090909       0.18181818 </v>
   <v>       0.27272727       0.09090909       0.18181818 </v>
   <v>       0.36363636       0.09090909       0.18181818 </v>
   <v>       0.45454545       0.09090909       0.18181818 </v>
   <v>      -0.45454545       0.09090909       0.18181818 </v>
   <v>      -0.36363636       0.09090909       0.18181818 </v>
   <v>      -0.27272727       0.09090909       0.18181818 </v>
   <v>      -0.18181818       0.09090909       0.18181818 </v>
   <v>      -0.09090909       0.09090909       0.18181818 </v>
   <v>      -0.00000000       0.18181818       0.18181818 </v>
   <v>       0.09090909       0.18181818       0.18181818 </v>
   <v>       0.18181818       0.18181818       0.18181818 </v>
   <v>       0.27272727       0.18181818       0.18181818 </v>
   <v>       0.36363636       0.18181818       0.18181818 </v>
   <v>       0.45454545       0.18181818       0.18181818 </v>
   <v>      -0.45454545       0.18181818       0.18181818 </v>
   <v>      -0.36363636       0.18181818       0.18181818 </v>
   <v>      -0.27272727       0.18181818       0.18181818 </v>
   <v>      -0.18181818       0.18181818       0.18181818 </v>
   <v>      -0.09090909       0.18181818       0.18181818 </v>
   <v>      -0.00000000       0.27272727       0.18181818 </v>
   <v>       0.09090909       0.27272727       0.18181818 </v>
   <v>       0.18181818       0.27272727       0.18181818 </v>
   <v>       0.27272727       0.27272727       0.18181818 </v>
   <v>       0.36363636       0.27272727       0.18181818 </v>
   <v>       0.45454545       0.27272727       0.18181818 </v>
   <v>      -0.45454545       0.27272727       0.18181818 </v>
   <v>      -0.36363636       0.27272727       0.18181818 </v>
   <v>      -0.27272727       0.27272727       0.18181818 </v>
   <v>      -0.18181818       0.27272727       0.18181818 </v>
   <v>      -0.09090909       0.27272727       0.18181818 </v>
   <v>       0.00000000       0.36363636       0.18181818 </v>
   <v>       0.09090909       0.36363636       0.18181818 </v>
   <v>       0.18181818       0.36363636       0.18181818 </v>
   <v>       0.27272727       0.36363636       0.18181818 </v>
   <v>       0.36363636       0.36363636       0.18181818 </v>
   <v>       0.45454545       0.36363636       0.18181818 </v>
   <v>      -0.45454545       0.36363636       0.18181818 </v>
   <v>      -0.36363636       0.36363636       0.18181818 </v>
   <v>      -0.27272727       0.36363636       0.18181818 </v>
   <v>      -0.18181818       0.36363636       0.18181818 </v>
   <v>      -0.09090909       0.36363636       0.18181818 </v>
   <v>       0.00000000       0.45454545       0.18181818 </v>
   <v>       0.09090909       0.45454545       0.18181818 </v>
   <v>       0.18181818       0.45454545       0.18181818 </v>
   <v>       0.27272727       0.45454545       0.18181818 </v>
   <v>       0.36363636       0.45454545       0.18181818 </v>
   <v>       0.45454545       0.45454545       0.18181818 </v>
   <v>      -0.45454545       0.45454545       0.18181818 </v>
   <v>      -0.36363636       0.45454545       0.18181818 </v>
   <v>      -0.27272727       0.45454545       0.18181818 </v>
   <v>      -0.18181818       0.45454545       0.18181818 </v>
   <v>      -0.09090909       0.45454545       0.18181818 </v>
   <v>      -0.00000000      -0.45454545       0.18181818 </v>
   <v>       0.09090909      -0.45454545       0.18181818 </v>
   <v>       0.18181818      -0.45454545       0.18181818 </v>
   <v>       0.27272727      -0.45454545       0.18181818 </v>
   <v>       0.36363636      -0.45454545       0.18181818 </v>
   <v>       0.45454545      -0.45454545       0.18181818 </v>
   <v>      -0.45454545      -0.45454545       0.18181818 </v>
   <v>      -0.36363636      -0.45454545       0.18181818 </v>
   <v>      -0.27272727      -0.45454545       0.18181818 </v>
   <v>      -0.18181818      -0.45454545       0.18181818 </v>
   <v>      -0.09090909      -0.45454545       0.18181818 </v>
   <v>      -0.00000000      -0.36363636       0.18181818 </v>
   <v>       0.09090909      -0.36363636       0.18181818 </v>
   <v>       0.18181818      -0.36363636       0.18181818 </v>
   <v>       0.27272727      -0.36363636       0.18181818 </v>
   <v>       0.36363636      -0.36363636       0.18181818 </v>
   <v>       0.45454545      -0.36363636       0.18181818 </v>
   <v>      -0.45454545      -0.36363636       0.18181818 </v>
   <v>      -0.36363636      -0.36363636       0.18181818 </v>
   <v>      -0.27272727      -0.36363636       0.18181818 </v>
   <v>      -0.18181818      -0.36363636       0.18181818 </v>
   <v>      -0.09090909      -0.36363636       0.18181818 </v>
   <v>      -0.00000000      -0.27272727       0.18181818 </v>
   <v>       0.09090909      -0.27272727       0.18181818 </v>
   <v>       0.18181818      -0.27272727       0.18181818 </v>
   <v>       0.27272727      -0.27272727       0.18181818 </v>
   <v>       0.36363636      -0.27272727       0.18181818 </v>
   <v>       0.45454545      -0.27272727       0.18181818 </v>
   <v>      -0.45454545      -0.27272727       0.18181818 </v>
   <v>      -0.36363636      -0.27272727       0.18181818 </v>
   <v>      -0.27272727      -0.27272727       0.18181818 </v>
   <v>      -0.18181818      -0.27272727       0.18181818 </v>
   <v>      -0.09090909      -0.27272727       0.18181818 </v>
   <v>      -0.00000000      -0.18181818       0.18181818 </v>
   <v>       0.09090909      -0.18181818       0.18181818 </v>
   <v>       0.18181818      -0.18181818       0.18181818 </v>
   <v>       0.27272727      -0.18181818       0.18181818 </v>
   <v>       0.36363636      -0.18181818       0.18181818 </v>
   <v>       0.45454545      -0.18181818       0.18181818 </v>
   <v>      -0.45454545      -0.18181818       0.18181818 </v>
   <v>      -0.36363636      -0.18181818       0.18181818 </v>
   <v>      -0.27272727      -0.18181818       0.18181818 </v>
   <v>      -0.18181818      -0.18181818       0.18181818 </v>
   <v>      -0.09090909      -0.18181818       0.18181818 </v>
   <v>      -0.00000000      -0.09090909       0.18181818 </v>
   <v>       0.09090909      -0.09090909       0.18181818 </v>
   <v>       0.18181818      -0.09090909       0.18181818 </v>
   <v>       0.27272727      -0.09090909       0.18181818 </v>
   <v>       0.36363636      -0.09090909       0.18181818 </v>
   <v>       0.45454545      -0.09090909       0.18181818 </v>
   <v>      -0.45454545      -0.09090909       0.18181818 </v>
   <v>      -0.36363636      -0.09090909       0.18181818 </v>
   <v>      -0.27272727      -0.09090909       0.18181818 </v>
   <v>      -0.18181818      -0.09090909       0.18181818 </v>
   <v>      -0.09090909      -0.09090909       0.18181818 </v>
   <v>      -0.00000000       0.00000000       0.27272727 </v>
   <v>       0.09090909      -0.00000000       0.27272727 </v>
   <v>       0.18181818      -0.00000000       0.27272727 </v>
   <v>       0.27272727      -0.00000000       0.27272727 </v>
   <v>       0.36363636      -0.00000000       0.27272727 </v>
   <v>       0.45454545      -0.00000000       0.27272727 </v>
   <v>      -0.45454545       0.00000000       0.27272727 </v>
   <v>      -0.36363636       0.00000000       0.27272727 </v>
   <v>      -0.27272727       0.00000000       0.27272727 </v>
   <v>      -0.18181818       0.00000000       0.27272727 </v>
   <v>      -0.09090909       0.00000000       0.27272727 </v>
   <v>      -0.00000000       0.09090909       0.27272727 </v>
   <v>       0.09090909       0.09090909       0.27272727 </v>
   <v>       0.18181818       0.09090909       0.27272727 </v>
   <v>       0.27272727       0.09090909       0.27272727 </v>
   <v>       0.36363636       0.09090909       0.27272727 </v>
   <v>       0.45454545       0.09090909       0.27272727 </v>
   <v>      -0.45454545       0.09090909       0.27272727 </v>
   <v>      -0.36363636       0.09090909       0.27272727 </v>
   <v>      -0.27272727       0.09090909       0.27272727 </v>
   <v>      -0.18181818       0.09090909       0.27272727 </v>
   <v>      -0.09090909       0.09090909       0.27272727 </v>
   <v>      -0.00000000       0.18181818       0.27272727 </v>
   <v>       0.09090909       0.18181818       0.27272727 </v>
   <v>       0.18181818       0.18181818       0.27272727 </v>
   <v>       0.27272727       0.18181818       0.27272727 </v>
   <v>       0.36363636       0.18181818       0.27272727 </v>
   <v>       0.45454545       0.18181818       0.27272727 </v>
   <v>      -0.45454545       0.18181818       0.27272727 </v>
   <v>      -0.36363636       0.18181818       0.27272727 </v>
   <v>      -0.27272727       0.18181818       0.27272727 </v>
   <v>      -0.18181818       0.18181818       0.27272727 </v>
   <v>      -0.09090909       0.18181818       0.27272727 </v>
   <v>      -0.00000000       0.27272727       0.27272727 </v>
   <v>       0.09090909       0.27272727       0.27272727 </v>
   <v>       0.18181818       0.27272727       0.27272727 </v>
   <v>       0.27272727       0.27272727       0.27272727 </v>
   <v>       0.36363636       0.27272727       0.27272727 </v>
   <v>       0.45454545       0.27272727       0.27272727 </v>
   <v>      -0.45454545       0.27272727       0.27272727 </v>
   <v>      -0.36363636       0.27272727       0.27272727 </v>
   <v>      -0.27272727       0.27272727       0.27272727 </v>
   <v>      -0.18181818       0.27272727       0.27272727 </v>
   <v>      -0.09090909       0.27272727       0.27272727 </v>
   <v>       0.00000000       0.36363636       0.27272727 </v>
   <v>       0.09090909       0.36363636       0.27272727 </v>
   <v>       0.18181818       0.36363636       0.27272727 </v>
   <v>       0.27272727       0.36363636       0.27272727 </v>
   <v>       0.36363636       0.36363636       0.27272727 </v>
   <v>       0.45454545       0.36363636       0.27272727 </v>
   <v>      -0.45454545       0.36363636       0.27272727 </v>
   <v>      -0.36363636       0.36363636       0.27272727 </v>
   <v>      -0.27272727       0.36363636       0.27272727 </v>
   <v>      -0.18181818       0.36363636       0.27272727 </v>
   <v>      -0.09090909       0.36363636       0.27272727 </v>
   <v>       0.00000000       0.45454545       0.27272727 </v>
   <v>       0.09090909       0.45454545       0.27272727 </v>
   <v>       0.18181818       0.45454545       0.27272727 </v>
   <v>       0.27272727       0.45454545       0.27272727 </v>
   <v>       0.36363636       0.45454545       0.27272727 </v>
   <v>       0.45454545       0.45454545       0.27272727 </v>
   <v>      -0.45454545       0.45454545       0.27272727 </v>
   <v>      -0.36363636       0.45454545       0.27272727 </v>
   <v>      -0.27272727       0.45454545       0.27272727 </v>
   <v>      -0.18181818       0.45454545       0.27272727 </v>
   <v>      -0.09090909       0.45454545       0.27272727 </v>
   <v>      -0.00000000      -0.45454545       0.27272727 </v>
   <v>       0.09090909      -0.45454545       0.27272727 </v>
   <v>       0.18181818      -0.45454545       0.27272727 </v>
   <v>       0.27272727      -0.45454545       0.27272727 </v>
   <v>       0.36363636      -0.45454545       0.27272727 </v>
   <v>       0.45454545      -0.45454545       0.27272727 </v>
   <v>      -0.45454545      -0.45454545       0.27272727 </v>
   <v>      -0.36363636      -0.45454545       0.27272727 </v>
   <v>      -0.27272727      -0.45454545       0.27272727 </v>
   <v>      -0.18181818      -0.45454545       0.27272727 </v>
   <v>      -0.09090909      -0.45454545       0.27272727 </v>
   <v>      -0.00000000      -0.36363636       0.27272727 </v>
   <v>       0.09090909      -0.36363636       0.27272727 </v>
   <v>       0.18181818      -0.36363636       0.27272727 </v>
   <v>       0.27272727      -0.36363636       0.27272727 </v>
   <v>       0.36363636      -0.36363636       0.27272727 </v>
   <v>       0.45454545      -0.36363636       0.27272727 </v>
   <v>      -0.45454545      -0.36363636       0.27272727 </v>
   <v>      -0.36363636      -0.36363636       0.27272727 </v>
   <v>      -0.27272727      -0.36363636       0.27272727 </v>
   <v>      -0.18181818      -0.36363636       0.27272727 </v>
   <v>      -0.09090909      -0.36363636       0.27272727 </v>
   <v>      -0.00000000      -0.27272727       0.27272727 </v>
   <v>       0.09090909      -0.27272727       0.27272727 </v>
   <v>       0.18181818      -0.27272727       0.27272727 </v>
   <v>       0.27272727      -0.27272727       0.27272727 </v>
   <v>       0.36363636      -0.27272727       0.27272727 </v>
   <v>       0.45454545      -0.27272727       0.27272727 </v>
   <v>      -0.45454545      -0.27272727       0.27272727 </v>
   <v>      -0.36363636      -0.27272727       0.27272727 </v>
   <v>      -0.27272727      -0.27272727       0.27272727 </v>
   <v>      -0.18181818      -0.27272727       0.27272727 </v>
   <v>      -0.09090909      -0.27272727       0.27272727 </v>
   <v>      -0.00000000      -0.18181818       0.27272727 </v>
   <v>       0.09090909      -0.18181818       0.27272727 </v>
   <v>       0.18181818      -0.18181818       0.27272727 </v>
   <v>       0.27272727      -0.18181818       0.27272727 </v>
   <v>       0.36363636      -0.18181818       0.27272727 </v>
   <v>       0.45454545      -0.18181818       0.27272727 </v>
   <v>      -0.45454545      -0.18181818       0.27272727 </v>
   <v>      -0.36363636      -0.18181818       0.27272727 </v>
   <v>      -0.27272727      -0.18181818       0.27272727 </v>
   <v>      -0.18181818      -0.18181818       0.27272727 </v>
   <v>      -0.09090909      -0.18181818       0.27272727 </v>
   <v>      -0.00000000      -0.09090909       0.27272727 </v>
   <v>       0.09090909      -0.09090909       0.27272727 </v>
   <v>       0.18181818      -0.09090909       0.27272727 </v>
   <v>       0.27272727      -0.09090909       0.27272727 </v>
   <v>       0.36363636      -0.09090909       0.27272727 </v>
   <v>       0.45454545      -0.09090909       0.27272727 </v>
   <v>      -0.45454545      -0.09090909       0.27272727 </v>
   <v>      -0.36363636      -0.09090909       0.27272727 </v>
   <v>      -0.27272727      -0.09090909       0.27272727 </v>
   <v>      -0.18181818      -0.09090909       0.27272727 </v>
   <v>      -0.09090909      -0.09090909       0.27272727 </v>
   <v>      -0.00000000      -0.00000000       0.36363636 </v>
   <v>       0.09090909      -0.00000000       0.36363636 </v>
   <v>       0.18181818      -0.00000000       0.36363636 </v>
   <v>       0.27272727      -0.00000000       0.36363636 </v>
   <v>       0.36363636      -0.00000000       0.36363636 </v>
   <v>       0.45454545      -0.00000000       0.36363636 </v>
   <v>      -0.45454545       0.00000000       0.36363636 </v>
   <v>      -0.36363636      -0.00000000       0.36363636 </v>
   <v>      -0.27272727      -0.00000000       0.36363636 </v>
   <v>      -0.18181818       0.00000000       0.36363636 </v>
   <v>      -0.09090909       0.00000000       0.36363636 </v>
   <v>      -0.00000000       0.09090909       0.36363636 </v>
   <v>       0.09090909       0.09090909       0.36363636 </v>
   <v>       0.18181818       0.09090909       0.36363636 </v>
   <v>       0.27272727       0.09090909       0.36363636 </v>
   <v>       0.36363636       0.09090909       0.36363636 </v>
   <v>       0.45454545       0.09090909       0.36363636 </v>
   <v>      -0.45454545       0.09090909       0.36363636 </v>
   <v>      -0.36363636       0.09090909       0.36363636 </v>
   <v>      -0.27272727       0.09090909       0.36363636 </v>
   <v>      -0.18181818       0.09090909       0.36363636 </v>
   <v>      -0.09090909       0.09090909       0.36363636 </v>
   <v>      -0.00000000       0.18181818       0.36363636 </v>
   <v>       0.09090909       0.18181818       0.36363636 </v>
   <v>       0.18181818       0.18181818       0.36363636 </v>
   <v>       0.27272727       0.18181818       0.36363636 </v>
   <v>       0.36363636       0.18181818       0.36363636 </v>
   <v>       0.45454545       0.18181818       0.36363636 </v>
   <v>      -0.45454545       0.18181818       0.36363636 </v>
   <v>      -0.36363636       0.18181818       0.36363636 </v>
   <v>      -0.27272727       0.18181818       0.36363636 </v>
   <v>      -0.18181818       0.18181818       0.36363636 </v>
   <v>      -0.09090909       0.18181818       0.36363636 </v>
   <v>      -0.00000000       0.27272727       0.36363636 </v>
   <v>       0.09090909       0.27272727       0.36363636 </v>
   <v>       0.18181818       0.27272727       0.36363636 </v>
   <v>       0.27272727       0.27272727       0.36363636 </v>
   <v>       0.36363636       0.27272727       0.36363636 </v>
   <v>       0.45454545       0.27272727       0.36363636 </v>
   <v>      -0.45454545       0.27272727       0.36363636 </v>
   <v>      -0.36363636       0.27272727       0.36363636 </v>
   <v>      -0.27272727       0.27272727       0.36363636 </v>
   <v>      -0.18181818       0.27272727       0.36363636 </v>
   <v>      -0.09090909       0.27272727       0.36363636 </v>
   <v>      -0.00000000       0.36363636       0.36363636 </v>
   <v>       0.09090909       0.36363636       0.36363636 </v>
   <v>       0.18181818       0.36363636       0.36363636 </v>
   <v>       0.27272727       0.36363636       0.36363636 </v>
   <v>       0.36363636       0.36363636       0.36363636 </v>
   <v>       0.45454545       0.36363636       0.36363636 </v>
   <v>      -0.45454545       0.36363636       0.36363636 </v>
   <v>      -0.36363636       0.36363636       0.36363636 </v>
   <v>      -0.27272727       0.36363636       0.36363636 </v>
   <v>      -0.18181818       0.36363636       0.36363636 </v>
   <v>      -0.09090909       0.36363636       0.36363636 </v>
   <v>      -0.00000000       0.45454545       0.36363636 </v>
   <v>       0.09090909       0.45454545       0.36363636 </v>
   <v>       0.18181818       0.45454545       0.36363636 </v>
   <v>       0.27272727       0.45454545       0.36363636 </v>
   <v>       0.36363636       0.45454545       0.36363636 </v>
   <v>       0.45454545       0.45454545       0.36363636 </v>
   <v>      -0.45454545       0.45454545       0.36363636 </v>
   <v>      -0.36363636       0.45454545       0.36363636 </v>
   <v>      -0.27272727       0.45454545       0.36363636 </v>
   <v>      -0.18181818       0.45454545       0.36363636 </v>
   <v>      -0.09090909       0.45454545       0.36363636 </v>
   <v>      -0.00000000      -0.45454545       0.36363636 </v>
   <v>       0.09090909      -0.45454545       0.36363636 </v>
   <v>       0.18181818      -0.45454545       0.36363636 </v>
   <v>       0.27272727      -0.45454545       0.36363636 </v>
   <v>       0.36363636      -0.45454545       0.36363636 </v>
   <v>       0.45454545      -0.45454545       0.36363636 </v>
   <v>      -0.45454545      -0.45454545       0.36363636 </v>
   <v>      -0.36363636      -0.45454545       0.36363636 </v>
   <v>      -0.27272727      -0.45454545       0.36363636 </v>
   <v>      -0.18181818      -0.45454545       0.36363636 </v>
   <v>      -0.09090909      -0.45454545       0.36363636 </v>
   <v>      -0.00000000      -0.36363636       0.36363636 </v>
   <v>       0.09090909      -0.36363636       0.36363636 </v>
   <v>       0.18181818      -0.36363636       0.36363636 </v>
   <v>       0.27272727      -0.36363636       0.36363636 </v>
   <v>       0.36363636      -0.36363636       0.36363636 </v>
   <v>       0.45454545      -0.36363636       0.36363636 </v>
   <v>      -0.45454545      -0.36363636       0.36363636 </v>
   <v>      -0.36363636      -0.36363636       0.36363636 </v>
   <v>      -0.27272727      -0.36363636       0.36363636 </v>
   <v>      -0.18181818      -0.36363636       0.36363636 </v>
   <v>      -0.09090909      -0.36363636       0.36363636 </v>
   <v>      -0.00000000      -0.27272727       0.36363636 </v>
   <v>       0.09090909      -0.27272727       0.36363636 </v>
   <v>       0.18181818      -0.27272727       0.36363636 </v>
   <v>       0.27272727      -0.27272727       0.36363636 </v>
   <v>       0.36363636      -0.27272727       0.36363636 </v>
   <v>       0.45454545      -0.27272727       0.36363636 </v>
   <v>      -0.45454545      -0.27272727       0.36363636 </v>
   <v>      -0.36363636      -0.27272727       0.36363636 </v>
   <v>      -0.27272727      -0.27272727       0.36363636 </v>
   <v>      -0.18181818      -0.27272727       0.36363636 </v>
   <v>      -0.09090909      -0.27272727       0.36363636 </v>
   <v>      -0.00000000      -0.18181818       0.36363636 </v>
   <v>       0.09090909      -0.18181818       0.36363636 </v>
   <v>       0.18181818      -0.18181818       0.36363636 </v>
   <v>       0.27272727      -0.18181818       0.36363636 </v>
   <v>       0.36363636      -0.18181818       0.36363636 </v>
   <v>       0.45454545      -0.18181818       0.36363636 </v>
   <v>      -0.45454545      -0.18181818       0.36363636 </v>
   <v>      -0.36363636      -0.18181818       0.36363636 </v>
   <v>      -0.27272727      -0.18181818       0.36363636 </v>
   <v>      -0.18181818      -0.18181818       0.36363636 </v>
   <v>      -0.09090909      -0.18181818       0.36363636 </v>
   <v>      -0.00000000      -0.09090909       0.36363636 </v>
   <v>       0.09090909      -0.09090909       0.36363636 </v>
   <v>       0.18181818      -0.09090909       0.36363636 </v>
   <v>       0.27272727      -0.09090909       0.36363636 </v>
   <v>       0.36363636      -0.09090909       0.36363636 </v>
   <v>       0.45454545      -0.09090909       0.36363636 </v>
   <v>      -0.45454545      -0.09090909       0.36363636 </v>
   <v>      -0.36363636      -0.09090909       0.36363636 </v>
   <v>      -0.27272727      -0.09090909       0.36363636 </v>
   <v>      -0.18181818      -0.09090909       0.36363636 </v>
   <v>      -0.09090909      -0.09090909       0.36363636 </v>
   <v>      -0.00000000      -0.00000000       0.45454545 </v>
   <v>       0.09090909      -0.00000000       0.45454545 </v>
   <v>       0.18181818       0.00000000       0.45454545 </v>
   <v>       0.27272727      -0.00000000       0.45454545 </v>
   <v>       0.36363636      -0.00000000       0.45454545 </v>
   <v>       0.45454545      -0.00000000       0.45454545 </v>
   <v>      -0.45454545       0.00000000       0.45454545 </v>
   <v>      -0.36363636       0.00000000       0.45454545 </v>
   <v>      -0.27272727      -0.00000000       0.45454545 </v>
   <v>      -0.18181818       0.00000000       0.45454545 </v>
   <v>      -0.09090909       0.00000000       0.45454545 </v>
   <v>      -0.00000000       0.09090909       0.45454545 </v>
   <v>       0.09090909       0.09090909       0.45454545 </v>
   <v>       0.18181818       0.09090909       0.45454545 </v>
   <v>       0.27272727       0.09090909       0.45454545 </v>
   <v>       0.36363636       0.09090909       0.45454545 </v>
   <v>       0.45454545       0.09090909       0.45454545 </v>
   <v>      -0.45454545       0.09090909       0.45454545 </v>
   <v>      -0.36363636       0.09090909       0.45454545 </v>
   <v>      -0.27272727       0.09090909       0.45454545 </v>
   <v>      -0.18181818       0.09090909       0.45454545 </v>
   <v>      -0.09090909       0.09090909       0.45454545 </v>
   <v>      -0.00000000       0.18181818       0.45454545 </v>
   <v>       0.09090909       0.18181818       0.45454545 </v>
   <v>       0.18181818       0.18181818       0.45454545 </v>
   <v>       0.27272727       0.18181818       0.45454545 </v>
   <v>       0.36363636       0.18181818       0.45454545 </v>
   <v>       0.45454545       0.18181818       0.45454545 </v>
   <v>      -0.45454545       0.18181818       0.45454545 </v>
   <v>      -0.36363636       0.18181818       0.45454545 </v>
   <v>      -0.27272727       0.18181818       0.45454545 </v>
   <v>      -0.18181818       0.18181818       0.45454545 </v>
   <v>      -0.09090909       0.18181818       0.45454545 </v>
   <v>      -0.00000000       0.27272727       0.45454545 </v>
   <v>       0.09090909       0.27272727       0.45454545 </v>
   <v>       0.18181818       0.27272727       0.45454545 </v>
   <v>       0.27272727       0.27272727       0.45454545 </v>
   <v>       0.36363636       0.27272727       0.45454545 </v>
   <v>       0.45454545       0.27272727       0.45454545 </v>
   <v>      -0.45454545       0.27272727       0.45454545 </v>
   <v>      -0.36363636       0.27272727       0.45454545 </v>
   <v>      -0.27272727       0.27272727       0.45454545 </v>
   <v>      -0.18181818       0.27272727       0.45454545 </v>
   <v>      -0.09090909       0.27272727       0.45454545 </v>
   <v>      -0.00000000       0.36363636       0.45454545 </v>
   <v>       0.09090909       0.36363636       0.45454545 </v>
   <v>       0.18181818       0.36363636       0.45454545 </v>
   <v>       0.27272727       0.36363636       0.45454545 </v>
   <v>       0.36363636       0.36363636       0.45454545 </v>
   <v>       0.45454545       0.36363636       0.45454545 </v>
   <v>      -0.45454545       0.36363636       0.45454545 </v>
   <v>      -0.36363636       0.36363636       0.45454545 </v>
   <v>      -0.27272727       0.36363636       0.45454545 </v>
   <v>      -0.18181818       0.36363636       0.45454545 </v>
   <v>      -0.09090909       0.36363636       0.45454545 </v>
   <v>      -0.00000000       0.45454545       0.45454545 </v>
   <v>       0.09090909       0.45454545       0.45454545 </v>
   <v>       0.18181818       0.45454545       0.45454545 </v>
   <v>       0.27272727       0.45454545       0.45454545 </v>
   <v>       0.36363636       0.45454545       0.45454545 </v>
   <v>       0.45454545       0.45454545       0.45454545 </v>
   <v>      -0.45454545       0.45454545       0.45454545 </v>
   <v>      -0.36363636       0.45454545       0.45454545 </v>
   <v>      -0.27272727       0.45454545       0.45454545 </v>
   <v>      -0.18181818       0.45454545       0.45454545 </v>
   <v>      -0.09090909       0.45454545       0.45454545 </v>
   <v>      -0.00000000      -0.45454545       0.45454545 </v>
   <v>       0.09090909      -0.45454545       0.45454545 </v>
   <v>       0.18181818      -0.45454545       0.45454545 </v>
   <v>       0.27272727      -0.45454545       0.45454545 </v>
   <v>       0.36363636      -0.45454545       0.45454545 </v>
   <v>       0.45454545      -0.45454545       0.45454545 </v>
   <v>      -0.45454545      -0.45454545       0.45454545 </v>
   <v>      -0.36363636      -0.45454545       0.45454545 </v>
   <v>      -0.27272727      -0.45454545       0.45454545 </v>
   <v>      -0.18181818      -0.45454545       0.45454545 </v>
   <v>      -0.09090909      -0.45454545       0.45454545 </v>
   <v>       0.00000000      -0.36363636       0.45454545 </v>
   <v>       0.09090909      -0.36363636       0.45454545 </v>
   <v>       0.18181818      -0.36363636       0.45454545 </v>
   <v>       0.27272727      -0.36363636       0.45454545 </v>
   <v>       0.36363636      -0.36363636       0.45454545 </v>
   <v>       0.45454545      -0.36363636       0.45454545 </v>
   <v>      -0.45454545      -0.36363636       0.45454545 </v>
   <v>      -0.36363636      -0.36363636       0.45454545 </v>
   <v>      -0.27272727      -0.36363636       0.45454545 </v>
   <v>      -0.18181818      -0.36363636       0.45454545 </v>
   <v>      -0.09090909      -0.36363636       0.45454545 </v>
   <v>      -0.00000000      -0.27272727       0.45454545 </v>
   <v>       0.09090909      -0.27272727       0.45454545 </v>
   <v>       0.18181818      -0.27272727       0.45454545 </v>
   <v>       0.27272727      -0.27272727       0.45454545 </v>
   <v>       0.36363636      -0.27272727       0.45454545 </v>
   <v>       0.45454545      -0.27272727       0.45454545 </v>
   <v>      -0.45454545      -0.27272727       0.45454545 </v>
   <v>      -0.36363636      -0.27272727       0.45454545 </v>
   <v>      -0.27272727      -0.27272727       0.45454545 </v>
   <v>      -0.18181818      -0.27272727       0.45454545 </v>
   <v>      -0.09090909      -0.27272727       0.45454545 </v>
   <v>      -0.00000000      -0.18181818       0.45454545 </v>
   <v>       0.09090909      -0.18181818       0.45454545 </v>
   <v>       0.18181818      -0.18181818       0.45454545 </v>
   <v>       0.27272727      -0.18181818       0.45454545 </v>
   <v>       0.36363636      -0.18181818       0.45454545 </v>
   <v>       0.45454545      -0.18181818       0.45454545 </v>
   <v>      -0.45454545      -0.18181818       0.45454545 </v>
   <v>      -0.36363636      -0.18181818       0.45454545 </v>
   <v>      -0.27272727      -0.18181818       0.45454545 </v>
   <v>      -0.18181818      -0.18181818       0.45454545 </v>
   <v>      -0.09090909      -0.18181818       0.45454545 </v>
   <v>      -0.00000000      -0.09090909       0.45454545 </v>
   <v>       0.09090909      -0.09090909       0.45454545 </v>
   <v>       0.18181818      -0.09090909       0.45454545 </v>
   <v>       0.27272727      -0.09090909       0.45454545 </v>
   <v>       0.36363636      -0.09090909       0.45454545 </v>
   <v>       0.45454545      -0.09090909       0.45454545 </v>
   <v>      -0.45454545      -0.09090909       0.45454545 </v>
   <v>      -0.36363636      -0.09090909       0.45454545 </v>
   <v>      -0.27272727      -0.09090909       0.45454545 </v>
   <v>      -0.18181818      -0.09090909       0.45454545 </v>
   <v>      -0.09090909      -0.09090909       0.45454545 </v>
   <v>       0.00000000       0.00000000      -0.45454545 </v>
   <v>       0.09090909      -0.00000000      -0.45454545 </v>
   <v>       0.18181818       0.00000000      -0.45454545 </v>
   <v>       0.27272727       0.00000000      -0.45454545 </v>
   <v>       0.36363636       0.00000000      -0.45454545 </v>
   <v>       0.45454545      -0.00000000      -0.45454545 </v>
   <v>      -0.45454545       0.00000000      -0.45454545 </v>
   <v>      -0.36363636       0.00000000      -0.45454545 </v>
   <v>      -0.27272727       0.00000000      -0.45454545 </v>
   <v>      -0.18181818       0.00000000      -0.45454545 </v>
   <v>      -0.09090909       0.00000000      -0.45454545 </v>
   <v>       0.00000000       0.09090909      -0.45454545 </v>
   <v>       0.09090909       0.09090909      -0.45454545 </v>
   <v>       0.18181818       0.09090909      -0.45454545 </v>
   <v>       0.27272727       0.09090909      -0.45454545 </v>
   <v>       0.36363636       0.09090909      -0.45454545 </v>
   <v>       0.45454545       0.09090909      -0.45454545 </v>
   <v>      -0.45454545       0.09090909      -0.45454545 </v>
   <v>      -0.36363636       0.09090909      -0.45454545 </v>
   <v>      -0.27272727       0.09090909      -0.45454545 </v>
   <v>      -0.18181818       0.09090909      -0.45454545 </v>
   <v>      -0.09090909       0.09090909      -0.45454545 </v>
   <v>       0.00000000       0.18181818      -0.45454545 </v>
   <v>       0.09090909       0.18181818      -0.45454545 </v>
   <v>       0.18181818       0.18181818      -0.45454545 </v>
   <v>       0.27272727       0.18181818      -0.45454545 </v>
   <v>       0.36363636       0.18181818      -0.45454545 </v>
   <v>       0.45454545       0.18181818      -0.45454545 </v>
   <v>      -0.45454545       0.18181818      -0.45454545 </v>
   <v>      -0.36363636       0.18181818      -0.45454545 </v>
   <v>      -0.27272727       0.18181818      -0.45454545 </v>
   <v>      -0.18181818       0.18181818      -0.45454545 </v>
   <v>      -0.09090909       0.18181818      -0.45454545 </v>
   <v>       0.00000000       0.27272727      -0.45454545 </v>
   <v>       0.09090909       0.27272727      -0.45454545 </v>
   <v>       0.18181818       0.27272727      -0.45454545 </v>
   <v>       0.27272727       0.27272727      -0.45454545 </v>
   <v>       0.36363636       0.27272727      -0.45454545 </v>
   <v>       0.45454545       0.27272727      -0.45454545 </v>
   <v>      -0.45454545       0.27272727      -0.45454545 </v>
   <v>      -0.36363636       0.27272727      -0.45454545 </v>
   <v>      -0.27272727       0.27272727      -0.45454545 </v>
   <v>      -0.18181818       0.27272727      -0.45454545 </v>
   <v>      -0.09090909       0.27272727      -0.45454545 </v>
   <v>       0.00000000       0.36363636      -0.45454545 </v>
   <v>       0.09090909       0.36363636      -0.45454545 </v>
   <v>       0.18181818       0.36363636      -0.45454545 </v>
   <v>       0.27272727       0.36363636      -0.45454545 </v>
   <v>       0.36363636       0.36363636      -0.45454545 </v>
   <v>       0.45454545       0.36363636      -0.45454545 </v>
   <v>      -0.45454545       0.36363636      -0.45454545 </v>
   <v>      -0.36363636       0.36363636      -0.45454545 </v>
   <v>      -0.27272727       0.36363636      -0.45454545 </v>
   <v>      -0.18181818       0.36363636      -0.45454545 </v>
   <v>      -0.09090909       0.36363636      -0.45454545 </v>
   <v>       0.00000000       0.45454545      -0.45454545 </v>
   <v>       0.09090909       0.45454545      -0.45454545 </v>
   <v>       0.18181818       0.45454545      -0.45454545 </v>
   <v>       0.27272727       0.45454545      -0.45454545 </v>
   <v>       0.36363636       0.45454545      -0.45454545 </v>
   <v>       0.45454545       0.45454545      -0.45454545 </v>
   <v>      -0.45454545       0.45454545      -0.45454545 </v>
   <v>      -0.36363636       0.45454545      -0.45454545 </v>
   <v>      -0.27272727       0.45454545      -0.45454545 </v>
   <v>      -0.18181818       0.45454545      -0.45454545 </v>
   <v>      -0.09090909       0.45454545      -0.45454545 </v>
   <v>       0.00000000      -0.45454545      -0.45454545 </v>
   <v>       0.09090909      -0.45454545      -0.45454545 </v>
   <v>       0.18181818      -0.45454545      -0.45454545 </v>
   <v>       0.27272727      -0.45454545      -0.45454545 </v>
   <v>       0.36363636      -0.45454545      -0.45454545 </v>
   <v>       0.45454545      -0.45454545      -0.45454545 </v>
   <v>      -0.45454545      -0.45454545      -0.45454545 </v>
   <v>      -0.36363636      -0.45454545      -0.45454545 </v>
   <v>      -0.27272727      -0.45454545      -0.45454545 </v>
   <v>      -0.18181818      -0.45454545      -0.45454545 </v>
   <v>      -0.09090909      -0.45454545      -0.45454545 </v>
   <v>       0.00000000      -0.36363636      -0.45454545 </v>
   <v>       0.09090909      -0.36363636      -0.45454545 </v>
   <v>       0.18181818      -0.36363636      -0.45454545 </v>
   <v>       0.27272727      -0.36363636      -0.45454545 </v>
   <v>       0.36363636      -0.36363636      -0.45454545 </v>
   <v>       0.45454545      -0.36363636      -0.45454545 </v>
   <v>      -0.45454545      -0.36363636      -0.45454545 </v>
   <v>      -0.36363636      -0.36363636      -0.45454545 </v>
   <v>      -0.27272727      -0.36363636      -0.45454545 </v>
   <v>      -0.18181818      -0.36363636      -0.45454545 </v>
   <v>      -0.09090909      -0.36363636      -0.45454545 </v>
   <v>       0.00000000      -0.27272727      -0.45454545 </v>
   <v>       0.09090909      -0.27272727      -0.45454545 </v>
   <v>       0.18181818      -0.27272727      -0.45454545 </v>
   <v>       0.27272727      -0.27272727      -0.45454545 </v>
   <v>       0.36363636      -0.27272727      -0.45454545 </v>
   <v>       0.45454545      -0.27272727      -0.45454545 </v>
   <v>      -0.45454545      -0.27272727      -0.45454545 </v>
   <v>      -0.36363636      -0.27272727      -0.45454545 </v>
   <v>      -0.27272727      -0.27272727      -0.45454545 </v>
   <v>      -0.18181818      -0.27272727      -0.45454545 </v>
   <v>      -0.09090909      -0.27272727      -0.45454545 </v>
   <v>       0.00000000      -0.18181818      -0.45454545 </v>
   <v>       0.09090909      -0.18181818      -0.45454545 </v>
   <v>       0.18181818      -0.18181818      -0.45454545 </v>
   <v>       0.27272727      -0.18181818      -0.45454545 </v>
   <v>       0.36363636      -0.18181818      -0.45454545 </v>
   <v>       0.45454545      -0.18181818      -0.45454545 </v>
   <v>      -0.45454545      -0.18181818      -0.45454545 </v>
   <v>      -0.36363636      -0.18181818      -0.45454545 </v>
   <v>      -0.27272727      -0.18181818      -0.45454545 </v>
   <v>      -0.18181818      -0.18181818      -0.45454545 </v>
   <v>      -0.09090909      -0.18181818      -0.45454545 </v>
   <v>       0.00000000      -0.09090909      -0.45454545 </v>
   <v>       0.09090909      -0.09090909      -0.45454545 </v>
   <v>       0.18181818      -0.09090909      -0.45454545 </v>
   <v>       0.27272727      -0.09090909      -0.45454545 </v>
   <v>       0.36363636      -0.09090909      -0.45454545 </v>
   <v>       0.45454545      -0.09090909      -0.45454545 </v>
   <v>      -0.45454545      -0.09090909      -0.45454545 </v>
   <v>      -0.36363636      -0.09090909      -0.45454545 </v>
   <v>      -0.27272727      -0.09090909      -0.45454545 </v>
   <v>      -0.18181818      -0.09090909      -0.45454545 </v>
   <v>      -0.09090909      -0.09090909      -0.45454545 </v>
   <v>       0.00000000       0.00000000      -0.36363636 </v>
   <v>       0.09090909       0.00000000      -0.36363636 </v>
   <v>       0.18181818      -0.00000000      -0.36363636 </v>
   <v>       0.27272727       0.00000000      -0.36363636 </v>
   <v>       0.36363636       0.00000000      -0.36363636 </v>
   <v>       0.45454545      -0.00000000      -0.36363636 </v>
   <v>      -0.45454545       0.00000000      -0.36363636 </v>
   <v>      -0.36363636       0.00000000      -0.36363636 </v>
   <v>      -0.27272727       0.00000000      -0.36363636 </v>
   <v>      -0.18181818       0.00000000      -0.36363636 </v>
   <v>      -0.09090909       0.00000000      -0.36363636 </v>
   <v>       0.00000000       0.09090909      -0.36363636 </v>
   <v>       0.09090909       0.09090909      -0.36363636 </v>
   <v>       0.18181818       0.09090909      -0.36363636 </v>
   <v>       0.27272727       0.09090909      -0.36363636 </v>
   <v>       0.36363636       0.09090909      -0.36363636 </v>
   <v>       0.45454545       0.09090909      -0.36363636 </v>
   <v>      -0.45454545       0.09090909      -0.36363636 </v>
   <v>      -0.36363636       0.09090909      -0.36363636 </v>
   <v>      -0.27272727       0.09090909      -0.36363636 </v>
   <v>      -0.18181818       0.09090909      -0.36363636 </v>
   <v>      -0.09090909       0.09090909      -0.36363636 </v>
   <v>       0.00000000       0.18181818      -0.36363636 </v>
   <v>       0.09090909       0.18181818      -0.36363636 </v>
   <v>       0.18181818       0.18181818      -0.36363636 </v>
   <v>       0.27272727       0.18181818      -0.36363636 </v>
   <v>       0.36363636       0.18181818      -0.36363636 </v>
   <v>       0.45454545       0.18181818      -0.36363636 </v>
   <v>      -0.45454545       0.18181818      -0.36363636 </v>
   <v>      -0.36363636       0.18181818      -0.36363636 </v>
   <v>      -0.27272727       0.18181818      -0.36363636 </v>
   <v>      -0.18181818       0.18181818      -0.36363636 </v>
   <v>      -0.09090909       0.18181818      -0.36363636 </v>
   <v>       0.00000000       0.27272727      -0.36363636 </v>
   <v>       0.09090909       0.27272727      -0.36363636 </v>
   <v>       0.18181818       0.27272727      -0.36363636 </v>
   <v>       0.27272727       0.27272727      -0.36363636 </v>
   <v>       0.36363636       0.27272727      -0.36363636 </v>
   <v>       0.45454545       0.27272727      -0.36363636 </v>
   <v>      -0.45454545       0.27272727      -0.36363636 </v>
   <v>      -0.36363636       0.27272727      -0.36363636 </v>
   <v>      -0.27272727       0.27272727      -0.36363636 </v>
   <v>      -0.18181818       0.27272727      -0.36363636 </v>
   <v>      -0.09090909       0.27272727      -0.36363636 </v>
   <v>       0.00000000       0.36363636      -0.36363636 </v>
   <v>       0.09090909       0.36363636      -0.36363636 </v>
   <v>       0.18181818       0.36363636      -0.36363636 </v>
   <v>       0.27272727       0.36363636      -0.36363636 </v>
   <v>       0.36363636       0.36363636      -0.36363636 </v>
   <v>       0.45454545       0.36363636      -0.36363636 </v>
   <v>      -0.45454545       0.36363636      -0.36363636 </v>
   <v>      -0.36363636       0.36363636      -0.36363636 </v>
   <v>      -0.27272727       0.36363636      -0.36363636 </v>
   <v>      -0.18181818       0.36363636      -0.36363636 </v>
   <v>      -0.09090909       0.36363636      -0.36363636 </v>
   <v>       0.00000000       0.45454545      -0.36363636 </v>
   <v>       0.09090909       0.45454545      -0.36363636 </v>
   <v>       0.18181818       0.45454545      -0.36363636 </v>
   <v>       0.27272727       0.45454545      -0.36363636 </v>
   <v>       0.36363636       0.45454545      -0.36363636 </v>
   <v>       0.45454545       0.45454545      -0.36363636 </v>
   <v>      -0.45454545       0.45454545      -0.36363636 </v>
   <v>      -0.36363636       0.45454545      -0.36363636 </v>
   <v>      -0.27272727       0.45454545      -0.36363636 </v>
   <v>      -0.18181818       0.45454545      -0.36363636 </v>
   <v>      -0.09090909       0.45454545      -0.36363636 </v>
   <v>       0.00000000      -0.45454545      -0.36363636 </v>
   <v>       0.09090909      -0.45454545      -0.36363636 </v>
   <v>       0.18181818      -0.45454545      -0.36363636 </v>
   <v>       0.27272727      -0.45454545      -0.36363636 </v>
   <v>       0.36363636      -0.45454545      -0.36363636 </v>
   <v>       0.45454545      -0.45454545      -0.36363636 </v>
   <v>      -0.45454545      -0.45454545      -0.36363636 </v>
   <v>      -0.36363636      -0.45454545      -0.36363636 </v>
   <v>      -0.27272727      -0.45454545      -0.36363636 </v>
   <v>      -0.18181818      -0.45454545      -0.36363636 </v>
   <v>      -0.09090909      -0.45454545      -0.36363636 </v>
   <v>       0.00000000      -0.36363636      -0.36363636 </v>
   <v>       0.09090909      -0.36363636      -0.36363636 </v>
   <v>       0.18181818      -0.36363636      -0.36363636 </v>
   <v>       0.27272727      -0.36363636      -0.36363636 </v>
   <v>       0.36363636      -0.36363636      -0.36363636 </v>
   <v>       0.45454545      -0.36363636      -0.36363636 </v>
   <v>      -0.45454545      -0.36363636      -0.36363636 </v>
   <v>      -0.36363636      -0.36363636      -0.36363636 </v>
   <v>      -0.27272727      -0.36363636      -0.36363636 </v>
   <v>      -0.18181818      -0.36363636      -0.36363636 </v>
   <v>      -0.09090909      -0.36363636      -0.36363636 </v>
   <v>       0.00000000      -0.27272727      -0.36363636 </v>
   <v>       0.09090909      -0.27272727      -0.36363636 </v>
   <v>       0.18181818      -0.27272727      -0.36363636 </v>
   <v>       0.27272727      -0.27272727      -0.36363636 </v>
   <v>       0.36363636      -0.27272727      -0.36363636 </v>
   <v>       0.45454545      -0.27272727      -0.36363636 </v>
   <v>      -0.45454545      -0.27272727      -0.36363636 </v>
   <v>      -0.36363636      -0.27272727      -0.36363636 </v>
   <v>      -0.27272727      -0.27272727      -0.36363636 </v>
   <v>      -0.18181818      -0.27272727      -0.36363636 </v>
   <v>      -0.09090909      -0.27272727      -0.36363636 </v>
   <v>       0.00000000      -0.18181818      -0.36363636 </v>
   <v>       0.09090909      -0.18181818      -0.36363636 </v>
   <v>       0.18181818      -0.18181818      -0.36363636 </v>
   <v>       0.27272727      -0.18181818      -0.36363636 </v>
   <v>       0.36363636      -0.18181818      -0.36363636 </v>
   <v>       0.45454545      -0.18181818      -0.36363636 </v>
   <v>      -0.45454545      -0.18181818      -0.36363636 </v>
   <v>      -0.36363636      -0.18181818      -0.36363636 </v>
   <v>      -0.27272727      -0.18181818      -0.36363636 </v>
   <v>      -0.18181818      -0.18181818      -0.36363636 </v>
   <v>      -0.09090909      -0.18181818      -0.36363636 </v>
   <v>       0.00000000      -0.09090909      -0.36363636 </v>
   <v>       0.09090909      -0.09090909      -0.36363636 </v>
   <v>       0.18181818      -0.09090909      -0.36363636 </v>
   <v>       0.27272727      -0.09090909      -0.36363636 </v>
   <v>       0.36363636      -0.09090909      -0.36363636 </v>
   <v>       0.45454545      -0.09090909      -0.36363636 </v>
   <v>      -0.45454545      -0.09090909      -0.36363636 </v>
   <v>      -0.36363636      -0.09090909      -0.36363636 </v>
   <v>      -0.27272727      -0.09090909      -0.36363636 </v>
   <v>      -0.18181818      -0.09090909      -0.36363636 </v>
   <v>      -0.09090909      -0.09090909      -0.36363636 </v>
   <v>       0.00000000      -0.00000000      -0.27272727 </v>
   <v>       0.09090909       0.00000000      -0.27272727 </v>
   <v>       0.18181818      -0.00000000      -0.27272727 </v>
   <v>       0.27272727       0.00000000      -0.27272727 </v>
   <v>       0.36363636      -0.00000000      -0.27272727 </v>
   <v>       0.45454545       0.00000000      -0.27272727 </v>
   <v>      -0.45454545       0.00000000      -0.27272727 </v>
   <v>      -0.36363636       0.00000000      -0.27272727 </v>
   <v>      -0.27272727       0.00000000      -0.27272727 </v>
   <v>      -0.18181818       0.00000000      -0.27272727 </v>
   <v>      -0.09090909       0.00000000      -0.27272727 </v>
   <v>       0.00000000       0.09090909      -0.27272727 </v>
   <v>       0.09090909       0.09090909      -0.27272727 </v>
   <v>       0.18181818       0.09090909      -0.27272727 </v>
   <v>       0.27272727       0.09090909      -0.27272727 </v>
   <v>       0.36363636       0.09090909      -0.27272727 </v>
   <v>       0.45454545       0.09090909      -0.27272727 </v>
   <v>      -0.45454545       0.09090909      -0.27272727 </v>
   <v>      -0.36363636       0.09090909      -0.27272727 </v>
   <v>      -0.27272727       0.09090909      -0.27272727 </v>
   <v>      -0.18181818       0.09090909      -0.27272727 </v>
   <v>      -0.09090909       0.09090909      -0.27272727 </v>
   <v>       0.00000000       0.18181818      -0.27272727 </v>
   <v>       0.09090909       0.18181818      -0.27272727 </v>
   <v>       0.18181818       0.18181818      -0.27272727 </v>
   <v>       0.27272727       0.18181818      -0.27272727 </v>
   <v>       0.36363636       0.18181818      -0.27272727 </v>
   <v>       0.45454545       0.18181818      -0.27272727 </v>
   <v>      -0.45454545       0.18181818      -0.27272727 </v>
   <v>      -0.36363636       0.18181818      -0.27272727 </v>
   <v>      -0.27272727       0.18181818      -0.27272727 </v>
   <v>      -0.18181818       0.18181818      -0.27272727 </v>
   <v>      -0.09090909       0.18181818      -0.27272727 </v>
   <v>       0.00000000       0.27272727      -0.27272727 </v>
   <v>       0.09090909       0.27272727      -0.27272727 </v>
   <v>       0.18181818       0.27272727      -0.27272727 </v>
   <v>       0.27272727       0.27272727      -0.27272727 </v>
   <v>       0.36363636       0.27272727      -0.27272727 </v>
   <v>       0.45454545       0.27272727      -0.27272727 </v>
   <v>      -0.45454545       0.27272727      -0.27272727 </v>
   <v>      -0.36363636       0.27272727      -0.27272727 </v>
   <v>      -0.27272727       0.27272727      -0.27272727 </v>
   <v>      -0.18181818       0.27272727      -0.27272727 </v>
   <v>      -0.09090909       0.27272727      -0.27272727 </v>
   <v>       0.00000000       0.36363636      -0.27272727 </v>
   <v>       0.09090909       0.36363636      -0.27272727 </v>
   <v>       0.18181818       0.36363636      -0.27272727 </v>
   <v>       0.27272727       0.36363636      -0.27272727 </v>
   <v>       0.36363636       0.36363636      -0.27272727 </v>
   <v>       0.45454545       0.36363636      -0.27272727 </v>
   <v>      -0.45454545       0.36363636      -0.27272727 </v>
   <v>      -0.36363636       0.36363636      -0.27272727 </v>
   <v>      -0.27272727       0.36363636      -0.27272727 </v>
   <v>      -0.18181818       0.36363636      -0.27272727 </v>
   <v>      -0.09090909       0.36363636      -0.27272727 </v>
   <v>       0.00000000       0.45454545      -0.27272727 </v>
   <v>       0.09090909       0.45454545      -0.27272727 </v>
   <v>       0.18181818       0.45454545      -0.27272727 </v>
   <v>       0.27272727       0.45454545      -0.27272727 </v>
   <v>       0.36363636       0.45454545      -0.27272727 </v>
   <v>       0.45454545       0.45454545      -0.27272727 </v>
   <v>      -0.45454545       0.45454545      -0.27272727 </v>
   <v>      -0.36363636       0.45454545      -0.27272727 </v>
   <v>      -0.27272727       0.45454545      -0.27272727 </v>
   <v>      -0.18181818       0.45454545      -0.27272727 </v>
   <v>      -0.09090909       0.45454545      -0.27272727 </v>
   <v>       0.00000000      -0.45454545      -0.27272727 </v>
   <v>       0.09090909      -0.45454545      -0.27272727 </v>
   <v>       0.18181818      -0.45454545      -0.27272727 </v>
   <v>       0.27272727      -0.45454545      -0.27272727 </v>
   <v>       0.36363636      -0.45454545      -0.27272727 </v>
   <v>       0.45454545      -0.45454545      -0.27272727 </v>
   <v>      -0.45454545      -0.45454545      -0.27272727 </v>
   <v>      -0.36363636      -0.45454545      -0.27272727 </v>
   <v>      -0.27272727      -0.45454545      -0.27272727 </v>
   <v>      -0.18181818      -0.45454545      -0.27272727 </v>
   <v>      -0.09090909      -0.45454545      -0.27272727 </v>
   <v>      -0.00000000      -0.36363636      -0.27272727 </v>
   <v>       0.09090909      -0.36363636      -0.27272727 </v>
   <v>       0.18181818      -0.36363636      -0.27272727 </v>
   <v>       0.27272727      -0.36363636      -0.27272727 </v>
   <v>       0.36363636      -0.36363636      -0.27272727 </v>
   <v>       0.45454545      -0.36363636      -0.27272727 </v>
   <v>      -0.45454545      -0.36363636      -0.27272727 </v>
   <v>      -0.36363636      -0.36363636      -0.27272727 </v>
   <v>      -0.27272727      -0.36363636      -0.27272727 </v>
   <v>      -0.18181818      -0.36363636      -0.27272727 </v>
   <v>      -0.09090909      -0.36363636      -0.27272727 </v>
   <v>       0.00000000      -0.27272727      -0.27272727 </v>
   <v>       0.09090909      -0.27272727      -0.27272727 </v>
   <v>       0.18181818      -0.27272727      -0.27272727 </v>
   <v>       0.27272727      -0.27272727      -0.27272727 </v>
   <v>       0.36363636      -0.27272727      -0.27272727 </v>
   <v>       0.45454545      -0.27272727      -0.27272727 </v>
   <v>      -0.45454545      -0.27272727      -0.27272727 </v>
   <v>      -0.36363636      -0.27272727      -0.27272727 </v>
   <v>      -0.27272727      -0.27272727      -0.27272727 </v>
   <v>      -0.18181818      -0.27272727      -0.27272727 </v>
   <v>      -0.09090909      -0.27272727      -0.27272727 </v>
   <v>       0.00000000      -0.18181818      -0.27272727 </v>
   <v>       0.09090909      -0.18181818      -0.27272727 </v>
   <v>       0.18181818      -0.18181818      -0.27272727 </v>
   <v>       0.27272727      -0.18181818      -0.27272727 </v>
   <v>       0.36363636      -0.18181818      -0.27272727 </v>
   <v>       0.45454545      -0.18181818      -0.27272727 </v>
   <v>      -0.45454545      -0.18181818      -0.27272727 </v>
   <v>      -0.36363636      -0.18181818      -0.27272727 </v>
   <v>      -0.27272727      -0.18181818      -0.27272727 </v>
   <v>      -0.18181818      -0.18181818      -0.27272727 </v>
   <v>      -0.09090909      -0.18181818      -0.27272727 </v>
   <v>       0.00000000      -0.09090909      -0.27272727 </v>
   <v>       0.09090909      -0.09090909      -0.27272727 </v>
   <v>       0.18181818      -0.09090909      -0.27272727 </v>
   <v>       0.27272727      -0.09090909      -0.27272727 </v>
   <v>       0.36363636      -0.09090909      -0.27272727 </v>
   <v>       0.45454545      -0.09090909      -0.27272727 </v>
   <v>      -0.45454545      -0.09090909      -0.27272727 </v>
   <v>      -0.36363636      -0.09090909      -0.27272727 </v>
   <v>      -0.27272727      -0.09090909      -0.27272727 </v>
   <v>      -0.18181818      -0.09090909      -0.27272727 </v>
   <v>      -0.09090909      -0.09090909      -0.27272727 </v>
   <v>       0.00000000       0.00000000      -0.18181818 </v>
   <v>       0.09090909      -0.00000000      -0.18181818 </v>
   <v>       0.18181818       0.00000000      -0.18181818 </v>
   <v>       0.27272727      -0.00000000      -0.18181818 </v>
   <v>       0.36363636       0.00000000      -0.18181818 </v>
   <v>       0.45454545       0.00000000      -0.18181818 </v>
   <v>      -0.45454545       0.00000000      -0.18181818 </v>
   <v>      -0.36363636       0.00000000      -0.18181818 </v>
   <v>      -0.27272727       0.00000000      -0.18181818 </v>
   <v>      -0.18181818       0.00000000      -0.18181818 </v>
   <v>      -0.09090909       0.00000000      -0.18181818 </v>
   <v>       0.00000000       0.09090909      -0.18181818 </v>
   <v>       0.09090909       0.09090909      -0.18181818 </v>
   <v>       0.18181818       0.09090909      -0.18181818 </v>
   <v>       0.27272727       0.09090909      -0.18181818 </v>
   <v>       0.36363636       0.09090909      -0.18181818 </v>
   <v>       0.45454545       0.09090909      -0.18181818 </v>
   <v>      -0.45454545       0.09090909      -0.18181818 </v>
   <v>      -0.36363636       0.09090909      -0.18181818 </v>
   <v>      -0.27272727       0.09090909      -0.18181818 </v>
   <v>      -0.18181818       0.09090909      -0.18181818 </v>
   <v>      -0.09090909       0.09090909      -0.18181818 </v>
   <v>       0.00000000       0.18181818      -0.18181818 </v>
   <v>       0.09090909       0.18181818      -0.18181818 </v>
   <v>       0.18181818       0.18181818      -0.18181818 </v>
   <v>       0.27272727       0.18181818      -0.18181818 </v>
   <v>       0.36363636       0.18181818      -0.18181818 </v>
   <v>       0.45454545       0.18181818      -0.18181818 </v>
   <v>      -0.45454545       0.18181818      -0.18181818 </v>
   <v>      -0.36363636       0.18181818      -0.18181818 </v>
   <v>      -0.27272727       0.18181818      -0.18181818 </v>
   <v>      -0.18181818       0.18181818      -0.18181818 </v>
   <v>      -0.09090909       0.18181818      -0.18181818 </v>
   <v>       0.00000000       0.27272727      -0.18181818 </v>
   <v>       0.09090909       0.27272727      -0.18181818 </v>
   <v>       0.18181818       0.27272727      -0.18181818 </v>
   <v>       0.27272727       0.27272727      -0.18181818 </v>
   <v>       0.36363636       0.27272727      -0.18181818 </v>
   <v>       0.45454545       0.27272727      -0.18181818 </v>
   <v>      -0.45454545       0.27272727      -0.18181818 </v>
   <v>      -0.36363636       0.27272727      -0.18181818 </v>
   <v>      -0.27272727       0.27272727      -0.18181818 </v>
   <v>      -0.18181818       0.27272727      -0.18181818 </v>
   <v>      -0.09090909       0.27272727      -0.18181818 </v>
   <v>       0.00000000       0.36363636      -0.18181818 </v>
   <v>       0.09090909       0.36363636      -0.18181818 </v>
   <v>       0.18181818       0.36363636      -0.18181818 </v>
   <v>       0.27272727       0.36363636      -0.18181818 </v>
   <v>       0.36363636       0.36363636      -0.18181818 </v>
   <v>       0.45454545       0.36363636      -0.18181818 </v>
   <v>      -0.45454545       0.36363636      -0.18181818 </v>
   <v>      -0.36363636       0.36363636      -0.18181818 </v>
   <v>      -0.27272727       0.36363636      -0.18181818 </v>
   <v>      -0.18181818       0.36363636      -0.18181818 </v>
   <v>      -0.09090909       0.36363636      -0.18181818 </v>
   <v>       0.00000000       0.45454545      -0.18181818 </v>
   <v>       0.09090909       0.45454545      -0.18181818 </v>
   <v>       0.18181818       0.45454545      -0.18181818 </v>
   <v>       0.27272727       0.45454545      -0.18181818 </v>
   <v>       0.36363636       0.45454545      -0.18181818 </v>
   <v>       0.45454545       0.45454545      -0.18181818 </v>
   <v>      -0.45454545       0.45454545      -0.18181818 </v>
   <v>      -0.36363636       0.45454545      -0.18181818 </v>
   <v>      -0.27272727       0.45454545      -0.18181818 </v>
   <v>      -0.18181818       0.45454545      -0.18181818 </v>
   <v>      -0.09090909       0.45454545      -0.18181818 </v>
   <v>       0.00000000      -0.45454545      -0.18181818 </v>
   <v>       0.09090909      -0.45454545      -0.18181818 </v>
   <v>       0.18181818      -0.45454545      -0.18181818 </v>
   <v>       0.27272727      -0.45454545      -0.18181818 </v>
   <v>       0.36363636      -0.45454545      -0.18181818 </v>
   <v>       0.45454545      -0.45454545      -0.18181818 </v>
   <v>      -0.45454545      -0.45454545      -0.18181818 </v>
   <v>      -0.36363636      -0.45454545      -0.18181818 </v>
   <v>      -0.27272727      -0.45454545      -0.18181818 </v>
   <v>      -0.18181818      -0.45454545      -0.18181818 </v>
   <v>      -0.09090909      -0.45454545      -0.18181818 </v>
   <v>       0.00000000      -0.36363636      -0.18181818 </v>
   <v>       0.09090909      -0.36363636      -0.18181818 </v>
   <v>       0.18181818      -0.36363636      -0.18181818 </v>
   <v>       0.27272727      -0.36363636      -0.18181818 </v>
   <v>       0.36363636      -0.36363636      -0.18181818 </v>
   <v>       0.45454545      -0.36363636      -0.18181818 </v>
   <v>      -0.45454545      -0.36363636      -0.18181818 </v>
   <v>      -0.36363636      -0.36363636      -0.18181818 </v>
   <v>      -0.27272727      -0.36363636      -0.18181818 </v>
   <v>      -0.18181818      -0.36363636      -0.18181818 </v>
   <v>      -0.09090909      -0.36363636      -0.18181818 </v>
   <v>       0.00000000      -0.27272727      -0.18181818 </v>
   <v>       0.09090909      -0.27272727      -0.18181818 </v>
   <v>       0.18181818      -0.27272727      -0.18181818 </v>
   <v>       0.27272727      -0.27272727      -0.18181818 </v>
   <v>       0.36363636      -0.27272727      -0.18181818 </v>
   <v>       0.45454545      -0.27272727      -0.18181818 </v>
   <v>      -0.45454545      -0.27272727      -0.18181818 </v>
   <v>      -0.36363636      -0.27272727      -0.18181818 </v>
   <v>      -0.27272727      -0.27272727      -0.18181818 </v>
   <v>      -0.18181818      -0.27272727      -0.18181818 </v>
   <v>      -0.09090909      -0.27272727      -0.18181818 </v>
   <v>       0.00000000      -0.18181818      -0.18181818 </v>
   <v>       0.09090909      -0.18181818      -0.18181818 </v>
   <v>       0.18181818      -0.18181818      -0.18181818 </v>
   <v>       0.27272727      -0.18181818      -0.18181818 </v>
   <v>       0.36363636      -0.18181818      -0.18181818 </v>
   <v>       0.45454545      -0.18181818      -0.18181818 </v>
   <v>      -0.45454545      -0.18181818      -0.18181818 </v>
   <v>      -0.36363636      -0.18181818      -0.18181818 </v>
   <v>      -0.27272727      -0.18181818      -0.18181818 </v>
   <v>      -0.18181818      -0.18181818      -0.18181818 </v>
   <v>      -0.09090909      -0.18181818      -0.18181818 </v>
   <v>       0.00000000      -0.09090909      -0.18181818 </v>
   <v>       0.09090909      -0.09090909      -0.18181818 </v>
   <v>       0.18181818      -0.09090909      -0.18181818 </v>
   <v>       0.27272727      -0.09090909      -0.18181818 </v>
   <v>       0.36363636      -0.09090909      -0.18181818 </v>
   <v>       0.45454545      -0.09090909      -0.18181818 </v>
   <v>      -0.45454545      -0.09090909      -0.18181818 </v>
   <v>      -0.36363636      -0.09090909      -0.18181818 </v>
   <v>      -0.27272727      -0.09090909      -0.18181818 </v>
   <v>      -0.18181818      -0.09090909      -0.18181818 </v>
   <v>      -0.09090909      -0.09090909      -0.18181818 </v>
   <v>       0.00000000       0.00000000      -0.09090909 </v>
   <v>       0.09090909       0.00000000      -0.09090909 </v>
   <v>       0.18181818       0.00000000      -0.09090909 </v>
   <v>       0.27272727       0.00000000      -0.09090909 </v>
   <v>       0.36363636      -0.00000000      -0.09090909 </v>
   <v>       0.45454545       0.00000000      -0.09090909 </v>
   <v>      -0.45454545       0.00000000      -0.09090909 </v>
   <v>      -0.36363636       0.00000000      -0.09090909 </v>
   <v>      -0.27272727       0.00000000      -0.09090909 </v>
[...]
       <r>    31.9985     0.1384    21.9224 </r>
       <r>    32.0201     0.5507    21.9343 </r>
       <r>    32.0417     1.5002    21.9668 </r>
       <r>    32.0633     0.2166    21.9714 </r>
       <r>    32.0850     0.0000    21.9715 </r>
       <r>    32.1066     0.0000    21.9715 </r>
       <r>    32.1282     0.0000    21.9715 </r>
       <r>    32.1499     0.1896    21.9756 </r>
       <r>    32.1715     2.8472    22.0371 </r>
       <r>    32.1931     0.2991    22.0436 </r>
       <r>    32.2147     0.2424    22.0488 </r>
       <r>    32.2364     0.1995    22.0532 </r>
       <r>    32.2580     1.3370    22.0821 </r>
       <r>    32.2796     0.3046    22.0887 </r>
       <r>    32.3012     0.0181    22.0890 </r>
       <r>    32.3229     0.3927    22.0975 </r>
       <r>    32.3445     0.1444    22.1007 </r>
       <r>    32.3661     0.0014    22.1007 </r>
       <r>    32.3877     0.0612    22.1020 </r>
       <r>    32.4094     0.1119    22.1044 </r>
       <r>    32.4310     0.3457    22.1119 </r>
       <r>    32.4526     0.6842    22.1267 </r>
       <r>    32.4743     0.3381    22.1340 </r>
       <r>    32.4959     1.3015    22.1622 </r>
       <r>    32.5175     0.4902    22.1728 </r>
       <r>    32.5391     0.1112    22.1752 </r>
       <r>    32.5608     1.6412    22.2107 </r>
       <r>    32.5824     0.5259    22.2220 </r>
       <r>    32.6040     0.9656    22.2429 </r>
       <r>    32.6256     2.4187    22.2952 </r>
       <r>    32.6473     1.0773    22.3185 </r>
       <r>    32.6689     1.6249    22.3537 </r>
       <r>    32.6905     0.2005    22.3580 </r>
       <r>    32.7121     0.0566    22.3592 </r>
       <r>    32.7338     0.0608    22.3606 </r>
       <r>    32.7554     0.0036    22.3606 </r>
       <r>    32.7770     0.0181    22.3610 </r>
       <r>    32.7987     1.2783    22.3887 </r>
       <r>    32.8203     0.3709    22.3967 </r>
       <r>    32.8419     0.0044    22.3968 </r>
       <r>    32.8635     0.0607    22.3981 </r>
       <r>    32.8852     0.0044    22.3982 </r>
       <r>    32.9068     0.0005    22.3982 </r>
       <r>    32.9284     0.0834    22.4000 </r>
       <r>    32.9500     0.2685    22.4058 </r>
       <r>    32.9717     1.1262    22.4302 </r>
       <r>    32.9933     0.7732    22.4469 </r>
       <r>    33.0149     0.1756    22.4507 </r>
       <r>    33.0365     0.0901    22.4526 </r>
       <r>    33.0582     0.2681    22.4584 </r>
       <r>    33.0798     0.2065    22.4629 </r>
       <r>    33.1014     0.3293    22.4700 </r>
       <r>    33.1231     0.3801    22.4782 </r>
       <r>    33.1447     0.6448    22.4922 </r>
       <r>    33.1663     0.0479    22.4932 </r>
       <r>    33.1879     1.2329    22.5199 </r>
       <r>    33.2096     2.2708    22.5690 </r>
       <r>    33.2312     0.1839    22.5730 </r>
       <r>    33.2528     0.7841    22.5899 </r>
       <r>    33.2744     0.6618    22.6042 </r>
       <r>    33.2961     0.3275    22.6113 </r>
       <r>    33.3177     0.9472    22.6318 </r>
       <r>    33.3393     1.7823    22.6704 </r>
       <r>    33.3609     0.4677    22.6805 </r>
       <r>    33.3826     0.2074    22.6850 </r>
       <r>    33.4042     1.3594    22.7144 </r>
       <r>    33.4258     0.5432    22.7261 </r>
       <r>    33.4475     0.9502    22.7467 </r>
       <r>    33.4691     1.5481    22.7801 </r>
       <r>    33.4907     2.6099    22.8366 </r>
       <r>    33.5123     3.2654    22.9072 </r>
       <r>    33.5340     3.1209    22.9747 </r>
       <r>    33.5556     0.1399    22.9777 </r>
       <r>    33.5772     0.0952    22.9798 </r>
       <r>    33.5988     0.1306    22.9826 </r>
       <r>    33.6205     0.6571    22.9968 </r>
       <r>    33.6421     0.8366    23.0149 </r>
       <r>    33.6637     0.2344    23.0200 </r>
       <r>    33.6854     0.9948    23.0415 </r>
       <r>    33.7070     2.3378    23.0921 </r>
       <r>    33.7286     0.1019    23.0943 </r>
       <r>    33.7502     0.2070    23.0987 </r>
       <r>    33.7719     0.1391    23.1017 </r>
       <r>    33.7935     0.1384    23.1047 </r>
       <r>    33.8151     0.1495    23.1080 </r>
       <r>    33.8367     0.1427    23.1111 </r>
       <r>    33.8584     0.2463    23.1164 </r>
       <r>    33.8800     1.3381    23.1453 </r>
       <r>    33.9016     0.6076    23.1585 </r>
       <r>    33.9232     0.1580    23.1619 </r>
       <r>    33.9449     0.2489    23.1673 </r>
       <r>    33.9665     0.3331    23.1745 </r>
       <r>    33.9881     0.4524    23.1843 </r>
       <r>    34.0098     0.3522    23.1919 </r>
       <r>    34.0314     0.4444    23.2015 </r>
       <r>    34.0530     0.6558    23.2157 </r>
       <r>    34.0746     0.4930    23.2263 </r>
       <r>    34.0963     0.3826    23.2346 </r>
       <r>    34.1179     0.1802    23.2385 </r>
       <r>    34.1395     0.4174    23.2475 </r>
       <r>    34.1611     0.7121    23.2629 </r>
       <r>    34.1828     3.0846    23.3296 </r>
       <r>    34.2044     0.3992    23.3383 </r>
       <r>    34.2260     0.0426    23.3392 </r>
       <r>    34.2476     0.0637    23.3406 </r>
       <r>    34.2693     0.1994    23.3449 </r>
       <r>    34.2909     0.2953    23.3513 </r>
       <r>    34.3125     0.0884    23.3532 </r>
       <r>    34.3342     0.2857    23.3594 </r>
       <r>    34.3558     0.2939    23.3657 </r>
       <r>    34.3774     0.2342    23.3708 </r>
       <r>    34.3990     0.3450    23.3782 </r>
       <r>    34.4207     0.4952    23.3889 </r>
       <r>    34.4423     0.1701    23.3926 </r>
       <r>    34.4639     0.2032    23.3970 </r>
       <r>    34.4855     0.1507    23.4003 </r>
       <r>    34.5072     0.1275    23.4030 </r>
       <r>    34.5288     1.0477    23.4257 </r>
       <r>    34.5504     2.8058    23.4864 </r>
       <r>    34.5720     2.2580    23.5352 </r>
       <r>    34.5937     1.0637    23.5582 </r>
       <r>    34.6153     0.4053    23.5670 </r>
       <r>    34.6369     0.3264    23.5740 </r>
       <r>    34.6586     0.3173    23.5809 </r>
       <r>    34.6802     0.7179    23.5964 </r>
       <r>    34.7018     0.5565    23.6085 </r>
       <r>    34.7234     0.2511    23.6139 </r>
       <r>    34.7451     0.0641    23.6153 </r>
       <r>    34.7667     0.0886    23.6172 </r>
       <r>    34.7883     0.7357    23.6331 </r>
       <r>    34.8099     0.8922    23.6524 </r>
       <r>    34.8316     0.0930    23.6544 </r>
       <r>    34.8532     0.0512    23.6555 </r>
       <r>    34.8748     0.1162    23.6580 </r>
       <r>    34.8965     1.4720    23.6899 </r>
       <r>    34.9181     0.1673    23.6935 </r>
       <r>    34.9397     0.0544    23.6947 </r>
       <r>    34.9613     0.0737    23.6963 </r>
       <r>    34.9830     0.0101    23.6965 </r>
       <r>    35.0046     0.0000    23.6965 </r>
       <r>    35.0262     0.0000    23.6965 </r>
       <r>    35.0478     0.0000    23.6965 </r>
       <r>    35.0695     0.0000    23.6965 </r>
       <r>    35.0911     0.0288    23.6971 </r>
       <r>    35.1127     0.0503    23.6982 </r>
       <r>    35.1343     0.0586    23.6994 </r>
       <r>    35.1560     0.0802    23.7012 </r>
       <r>    35.1776     0.1139    23.7036 </r>
       <r>    35.1992     0.8217    23.7214 </r>
       <r>    35.2209     2.5471    23.7765 </r>
       <r>    35.2425     1.6060    23.8112 </r>
       <r>    35.2641     0.1697    23.8149 </r>
       <r>    35.2857     0.0496    23.8160 </r>
       <r>    35.3074     0.0325    23.8167 </r>
       <r>    35.3290     0.0001    23.8167 </r>
       <r>    35.3506     0.0057    23.8168 </r>
       <r>    35.3722     0.0604    23.8181 </r>
       <r>    35.3939     0.0033    23.8182 </r>
       <r>    35.4155     0.0000    23.8182 </r>
       <r>    35.4371     0.0005    23.8182 </r>
       <r>    35.4587     0.0896    23.8201 </r>
       <r>    35.4804     0.0946    23.8222 </r>
       <r>    35.5020     0.2528    23.8276 </r>
       <r>    35.5236     0.5948    23.8405 </r>
       <r>    35.5453     0.8985    23.8599 </r>
       <r>    35.5669     0.7571    23.8763 </r>
       <r>    35.5885     0.2698    23.8821 </r>
       <r>    35.6101     0.0408    23.8830 </r>
       <r>    35.6318     0.1500    23.8863 </r>
       <r>    35.6534     0.1799    23.8902 </r>
       <r>    35.6750     0.0774    23.8918 </r>
       <r>    35.6966     0.0662    23.8933 </r>
       <r>    35.7183     0.1391    23.8963 </r>
       <r>    35.7399     0.2268    23.9012 </r>
       <r>    35.7615     0.2530    23.9067 </r>
       <r>    35.7831     0.0083    23.9068 </r>
       <r>    35.8048     0.0056    23.9070 </r>
       <r>    35.8264     0.0913    23.9089 </r>
       <r>    35.8480     0.1734    23.9127 </r>
       <r>    35.8697     0.0620    23.9140 </r>
       <r>    35.8913     0.0841    23.9158 </r>
       <r>    35.9129     0.0009    23.9159 </r>
       <r>    35.9345     0.0746    23.9175 </r>
       <r>    35.9562     0.6185    23.9309 </r>
       <r>    35.9778     0.1442    23.9340 </r>
       <r>    35.9994     0.1071    23.9363 </r>
       <r>    36.0210     0.0280    23.9369 </r>
       <r>    36.0427     0.0000    23.9369 </r>
       <r>    36.0643     0.0000    23.9369 </r>
       <r>    36.0859     0.0000    23.9369 </r>
       <r>    36.1075     0.0000    23.9369 </r>
       <r>    36.1292     0.0000    23.9369 </r>
       <r>    36.1508     0.0000    23.9369 </r>
       <r>    36.1724     0.0000    23.9369 </r>
       <r>    36.1941     0.0000    23.9369 </r>
       <r>    36.2157     0.0000    23.9369 </r>
       <r>    36.2373     0.0010    23.9369 </r>
       <r>    36.2589     0.6972    23.9520 </r>
       <r>    36.2806     1.3581    23.9814 </r>
       <r>    36.3022     0.0281    23.9820 </r>
       <r>    36.3238     0.0000    23.9820 </r>
       <r>    36.3454     0.0000    23.9820 </r>
       <r>    36.3671     0.0000    23.9820 </r>
       <r>    36.3887     0.0000    23.9820 </r>
       <r>    36.4103     0.0000    23.9820 </r>
       <r>    36.4320     0.0000    23.9820 </r>
       <r>    36.4536     0.0000    23.9820 </r>
       <r>    36.4752     0.0001    23.9820 </r>
       <r>    36.4968     0.2044    23.9864 </r>
       <r>    36.5185     0.6218    23.9998 </r>
       <r>    36.5401     0.0074    24.0000 </r>
       <r>    36.5617     0.0000    24.0000 </r>
       <r>    36.5833     0.0000    24.0000 </r>
       <r>    36.6050     0.0000    24.0000 </r>
       <r>    36.6266     0.0000    24.0000 </r>
       <r>    36.6482     0.0000    24.0000 </r>
       <r>    36.6698     0.0000    24.0000 </r>
       <r>    36.6915     0.0000    24.0000 </r>
       <r>    36.7131     0.0000    24.0000 </r>
       <r>    36.7347     0.0000    24.0000 </r>
       <r>    36.7564     0.0000    24.0000 </r>
       <r>    36.7780     0.0000    24.0000 </r>
       <r>    36.7996     0.0000    24.0000 </r>
       <r>    36.8212     0.0000    24.0000 </r>
       <r>    36.8429     0.0000    24.0000 </r>
       <r>    36.8645     0.0000    24.0000 </r>
       <r>    36.8861     0.0000    24.0000 </r>
       <r>    36.9077     0.0000    24.0000 </r>
       <r>    36.9294     0.0000    24.0000 </r>
       <r>    36.9510     0.0000    24.0000 </r>
       <r>    36.9726     0.0000    24.0000 </r>
       <r>    36.9942     0.0000    24.0000 </r>
       <r>    37.0159     0.0000    24.0000 </r>
       <r>    37.0375     0.0000    24.0000 </r>
       <r>    37.0591     0.0000    24.0000 </r>
       <r>    37.0808     0.0000    24.0000 </r>
       <r>    37.1024     0.0000    24.0000 </r>
       <r>    37.1240     0.0000    24.0000 </r>
       <r>    37.1456     0.0000    24.0000 </r>
       <r>    37.1673     0.0000    24.0000 </r>
       <r>    37.1889     0.0000    24.0000 </r>
       <r>    37.2105     0.0000    24.0000 </r>
       <r>    37.2321     0.0000    24.0000 </r>
       <r>    37.2538     0.0000    24.0000 </r>
       <r>    37.2754     0.0000    24.0000 </r>
       <r>    37.2970     0.0000    24.0000 </r>
       <r>    37.3186     0.0000    24.0000 </r>
       <r>    37.3403     0.0000    24.0000 </r>
       <r>    37.3619     0.0000    24.0000 </r>
       <r>    37.3835     0.0000    24.0000 </r>
       <r>    37.4052     0.0000    24.0000 </r>
       <r>    37.4268     0.0000    24.0000 </r>
       <r>    37.4484     0.0000    24.0000 </r>
       <r>    37.4700     0.0000    24.0000 </r>
       <r>    37.4917     0.0000    24.0000 </r>
       <r>    37.5133     0.0000    24.0000 </r>
       <r>    37.5349     0.0000    24.0000 </r>
       <r>    37.5565     0.0000    24.0000 </r>
       <r>    37.5782     0.0000    24.0000 </r>
       <r>    37.5998     0.0000    24.0000 </r>
       <r>    37.6214     0.0000    24.0000 </r>
       <r>    37.6431     0.0000    24.0000 </r>
       <r>    37.6647     0.0000    24.0000 </r>
       <r>    37.6863     0.0000    24.0000 </r>
       <r>    37.7079     0.0000    24.0000 </r>
       <r>    37.7296     0.0000    24.0000 </r>
       <r>    37.7512     0.0000    24.0000 </r>
       <r>    37.7728     0.0000    24.0000 </r>
       <r>    37.7944     0.0000    24.0000 </r>
       <r>    37.8161     0.0000    24.0000 </r>
       <r>    37.8377     0.0000    24.0000 </r>
       <r>    37.8593     0.0000    24.0000 </r>
       <r>    37.8809     0.0000    24.0000 </r>
       <r>    37.9026     0.0000    24.0000 </r>
       <r>    37.9242     0.0000    24.0000 </r>
       <r>    37.9458     0.0000    24.0000 </r>
       <r>    37.9675     0.0000    24.0000 </r>
       <r>    37.9891     0.0000    24.0000 </r>
       <r>    38.0107     0.0000    24.0000 </r>
       <r>    38.0323     0.0000    24.0000 </r>
       <r>    38.0540     0.0000    24.0000 </r>
       <r>    38.0756     0.0000    24.0000 </r>
       <r>    38.0972     0.0000    24.0000 </r>
       <r>    38.1188     0.0000    24.0000 </r>
       <r>    38.1405     0.0000    24.0000 </r>
       <r>    38.1621     0.0000    24.0000 </r>
       <r>    38.1837     0.0000    24.0000 </r>
       <r>    38.2053     0.0000    24.0000 </r>
       <r>    38.2270     0.0000    24.0000 </r>
       <r>    38.2486     0.0000    24.0000 </r>
       <r>    38.2702     0.0000    24.0000 </r>
       <r>    38.2919     0.0000    24.0000 </r>
       <r>    38.3135     0.0000    24.0000 </r>
       <r>    38.3351     0.0000    24.0000 </r>
       <r>    38.3567     0.0000    24.0000 </r>
       <r>    38.3784     0.0000    24.0000 </r>
       <r>    38.4000     0.0000    24.0000 </r>
       <r>    38.4216     0.0000    24.0000 </r>
       <r>    38.4432     0.0000    24.0000 </r>
       <r>    38.4649     0.0000    24.0000 </r>
       <r>    38.4865     0.0000    24.0000 </r>
       <r>    38.5081     0.0000    24.0000 </r>
       <r>    38.5297     0.0000    24.0000 </r>
       <r>    38.5514     0.0000    24.0000 </r>
       <r>    38.5730     0.0000    24.0000 </r>
       <r>    38.5946     0.0000    24.0000 </r>
       <r>    38.6163     0.0000    24.0000 </r>
       <r>    38.6379     0.0000    24.0000 </r>
       <r>    38.6595     0.0000    24.0000 </r>
       <r>    38.6811     0.0000    24.0000 </r>
       <r>    38.7028     0.0000    24.0000 </r>
       <r>    38.7244     0.0000    24.0000 </r>
       <r>    38.7460     0.0000    24.0000 </r>
       <r>    38.7676     0.0000    24.0000 </r>
       <r>    38.7893     0.0000    24.0000 </r>
       <r>    38.8109     0.0000    24.0000 </r>
       <r>    38.8325     0.0000    24.0000 </r>
       <r>    38.8542     0.0000    24.0000 </r>
       <r>    38.8758     0.0000    24.0000 </r>
       <r>    38.8974     0.0000    24.0000 </r>
       <r>    38.9190     0.0000    24.0000 </r>
       <r>    38.9407     0.0000    24.0000 </r>
       <r>    38.9623     0.0000    24.0000 </r>
       <r>    38.9839     0.0000    24.0000 </r>
       <r>    39.0055     0.0000    24.0000 </r>
       <r>    39.0272     0.0000    24.0000 </r>
       <r>    39.0488     0.0000    24.0000 </r>
       <r>    39.0704     0.0000    24.0000 </r>
       <r>    39.0920     0.0000    24.0000 </r>
       <r>    39.1137     0.0000    24.0000 </r>
       <r>    39.1353     0.0000    24.0000 </r>
       <r>    39.1569     0.0000    24.0000 </r>
       <r>    39.1786     0.0000    24.0000 </r>
       <r>    39.2002     0.0000    24.0000 </r>
       <r>    39.2218     0.0000    24.0000 </r>
       <r>    39.2434     0.0000    24.0000 </r>
       <r>    39.2651     0.0000    24.0000 </r>
       <r>    39.2867     0.0000    24.0000 </r>
       <r>    39.3083     0.0000    24.0000 </r>
       <r>    39.3299     0.0000    24.0000 </r>
       <r>    39.3516     0.0000    24.0000 </r>
       <r>    39.3732     0.0000    24.0000 </r>
       <r>    39.3948     0.0000    24.0000 </r>
       <r>    39.4164     0.0000    24.0000 </r>
       <r>    39.4381     0.0000    24.0000 </r>
       <r>    39.4597     0.0000    24.0000 </r>
       <r>    39.4813     0.0000    24.0000 </r>
       <r>    39.5030     0.0000    24.0000 </r>
       <r>    39.5246     0.0000    24.0000 </r>
       <r>    39.5462     0.0000    24.0000 </r>
       <r>    39.5678     0.0000    24.0000 </r>
       <r>    39.5895     0.0000    24.0000 </r>
       <r>    39.6111     0.0000    24.0000 </r>
       <r>    39.6327     0.0000    24.0000 </r>
       <r>    39.6543     0.0000    24.0000 </r>
       <r>    39.6760     0.0000    24.0000 </r>
       <r>    39.6976     0.0000    24.0000 </r>
       <r>    39.7192     0.0000    24.0000 </r>
       <r>    39.7408     0.0000    24.0000 </r>
       <r>    39.7625     0.0000    24.0000 </r>
       <r>    39.7841     0.0000    24.0000 </r>
       <r>    39.8057     0.0000    24.0000 </r>
       <r>    39.8274     0.0000    24.0000 </r>
       <r>    39.8490     0.0000    24.0000 </r>
       <r>    39.8706     0.0000    24.0000 </r>
       <r>    39.8922     0.0000    24.0000 </r>
       <r>    39.9139     0.0000    24.0000 </r>
       <r>    39.9355     0.0000    24.0000 </r>
       <r>    39.9571     0.0000    24.0000 </r>
       <r>    39.9787     0.0000    24.0000 </r>
       <r>    40.0004     0.0000    24.0000 </r>
       <r>    40.0220     0.0000    24.0000 </r>
       <r>    40.0436     0.0000    24.0000 </r>
       <r>    40.0652     0.0000    24.0000 </r>
       <r>    40.0869     0.0000    24.0000 </r>
       <r>    40.1085     0.0000    24.0000 </r>
       <r>    40.1301     0.0000    24.0000 </r>
       <r>    40.1518     0.0000    24.0000 </r>
       <r>    40.1734     0.0000    24.0000 </r>
       <r>    40.1950     0.0000    24.0000 </r>
       <r>    40.2166     0.0000    24.0000 </r>
       <r>    40.2383     0.0000    24.0000 </r>
       <r>    40.2599     0.0000    24.0000 </r>
       <r>    40.2815     0.0000    24.0000 </r>
       <r>    40.3031     0.0000    24.0000 </r>
       <r>    40.3248     0.0000    24.0000 </r>
       <r>    40.3464     0.0000    24.0000 </r>
       <r>    40.3680     0.0000    24.0000 </r>
       <r>    40.3897     0.0000    24.0000 </r>
       <r>    40.4113     0.0000    24.0000 </r>
       <r>    40.4329     0.0000    24.0000 </r>
      </set>
     </set>
    </array>
   </total>
  </dos>
 </calculation>
 <structure name="finalpos" >
  <crystal>
   <varray name="basis" >
    <v>       0.00000363       2.02881878       2.02881873 </v>
    <v>       2.02881876       0.00000363       2.02881873 </v>
    <v>       2.02881881       2.02881882       0.00000359 </v>
   </varray>
   <i name="volume">     16.70161995 </i>
   <varray name="rec_basis" >
    <v>      -0.24644948       0.24644905       0.24644905 </v>
    <v>       0.24644905      -0.24644948       0.24644905 </v>
    <v>       0.24644904       0.24644904      -0.24644948 </v>
   </varray>
  </crystal>
  <varray name="positions" >
   <v>       0.00000000       0.00000001       0.00000001 </v>
   <v>       0.50000000       0.49999999       0.49999999 </v>
  </varray>
 </structure>
</modeling>
