  12  12   1   0
  0.1050332E+02  0.2916331E-09  0.4580966E-09  0.9434393E-09  0.5000000E-15
  1.000000000000000E-004
  CAR 
 unknown system                          
     22.20266114    -49.95661134  301      4.04257757      1.00000000
    -49.957  0.0000E+00  0.0000E+00  0.0000E+00  0.0000E+00
    -49.716  0.0000E+00  0.0000E+00  0.0000E+00  0.0000E+00
    -49.476  0.0000E+00  0.0000E+00  0.0000E+00  0.0000E+00
    -49.235  0.0000E+00  0.0000E+00  0.0000E+00  0.0000E+00
    -48.994  0.0000E+00  0.0000E+00  0.0000E+00  0.0000E+00
    -48.754  0.0000E+00  0.0000E+00  0.0000E+00  0.0000E+00
    -48.513  0.0000E+00  0.0000E+00  0.0000E+00  0.0000E+00
    -48.273  0.0000E+00  0.0000E+00  0.0000E+00  0.0000E+00
    -48.032  0.0000E+00  0.0000E+00  0.0000E+00  0.0000E+00
    -47.792  0.0000E+00  0.0000E+00  0.0000E+00  0.0000E+00
    -47.551  0.0000E+00  0.0000E+00  0.0000E+00  0.0000E+00
    -47.311  0.0000E+00  0.0000E+00  0.0000E+00  0.0000E+00
    -47.070  0.0000E+00  0.0000E+00  0.0000E+00  0.0000E+00
    -46.830  0.0000E+00  0.0000E+00  0.0000E+00  0.0000E+00
    -46.589  0.5612E-01  0.0000E+00  0.1551E-01  0.0000E+00
    -46.349  0.0000E+00  0.0000E+00  0.6030E-01  0.0000E+00
    -46.108  0.0000E+00  0.0000E+00  0.6030E-01  0.0000E+00
    -45.868  0.0000E+00  0.0000E+00  0.6030E-01  0.0000E+00
    -45.627  0.0000E+00  0.0000E+00  0.6030E-01  0.0000E+00
    -45.387  0.0000E+00  0.0000E+00  0.6030E-01  0.0000E+00
    -45.146  0.0000E+00  0.0000E+00  0.6030E-01  0.0000E+00
    -44.905  0.0000E+00  0.0000E+00  0.6030E-01  0.0000E+00
    -44.665  0.0000E+00  0.0000E+00  0.6030E-01  0.0000E+00
    -44.424  0.0000E+00  0.0000E+00  0.6030E-01  0.0000E+00
    -44.184  0.0000E+00  0.0000E+00  0.6030E-01  0.0000E+00
    -43.943  0.0000E+00  0.0000E+00  0.6030E-01  0.0000E+00
    -43.703  0.0000E+00  0.4296E-12  0.6030E-01  0.1033E-12
    -43.462  0.0000E+00  0.7133E-01  0.6030E-01  0.3555E-01
    -43.222  0.0000E+00  0.0000E+00  0.6030E-01  0.6030E-01
    -42.981  0.0000E+00  0.0000E+00  0.6030E-01  0.6030E-01
    -42.741  0.0000E+00  0.0000E+00  0.6030E-01  0.6030E-01
    -42.500  0.0000E+00  0.0000E+00  0.6030E-01  0.6030E-01
    -42.260  0.0000E+00  0.0000E+00  0.6030E-01  0.6030E-01
    -42.019  0.0000E+00  0.0000E+00  0.6030E-01  0.6030E-01
    -41.779  0.0000E+00  0.0000E+00  0.6030E-01  0.6030E-01
    -41.538  0.0000E+00  0.0000E+00  0.6030E-01  0.6030E-01
    -41.297  0.0000E+00  0.0000E+00  0.6030E-01  0.6030E-01
    -41.057  0.0000E+00  0.0000E+00  0.6030E-01  0.6030E-01
    -40.816  0.0000E+00  0.0000E+00  0.6030E-01  0.6030E-01
    -40.576  0.0000E+00  0.0000E+00  0.6030E-01  0.6030E-01
    -40.335  0.0000E+00  0.0000E+00  0.6030E-01  0.6030E-01
    -40.095  0.0000E+00  0.0000E+00  0.6030E-01  0.6030E-01
    -39.854  0.0000E+00  0.0000E+00  0.6030E-01  0.6030E-01
    -39.614  0.0000E+00  0.0000E+00  0.6030E-01  0.6030E-01
    -39.373  0.0000E+00  0.0000E+00  0.6030E-01  0.6030E-01
    -39.133  0.0000E+00  0.0000E+00  0.6030E-01  0.6030E-01
    -38.892  0.0000E+00  0.0000E+00  0.6030E-01  0.6030E-01
    -38.652  0.0000E+00  0.0000E+00  0.6030E-01  0.6030E-01
    -38.411  0.0000E+00  0.0000E+00  0.6030E-01  0.6030E-01
    -38.171  0.0000E+00  0.0000E+00  0.6030E-01  0.6030E-01
    -37.930  0.0000E+00  0.0000E+00  0.6030E-01  0.6030E-01
    -37.690  0.0000E+00  0.0000E+00  0.6030E-01  0.6030E-01
    -37.449  0.0000E+00  0.0000E+00  0.6030E-01  0.6030E-01
    -37.208  0.0000E+00  0.0000E+00  0.6030E-01  0.6030E-01
    -36.968  0.0000E+00  0.0000E+00  0.6030E-01  0.6030E-01
    -36.727  0.0000E+00  0.0000E+00  0.6030E-01  0.6030E-01
    -36.487  0.0000E+00  0.0000E+00  0.6030E-01  0.6030E-01
    -36.246  0.0000E+00  0.0000E+00  0.6030E-01  0.6030E-01
    -36.006  0.0000E+00  0.0000E+00  0.6030E-01  0.6030E-01
    -35.765  0.0000E+00  0.0000E+00  0.6030E-01  0.6030E-01
    -35.525  0.0000E+00  0.0000E+00  0.6030E-01  0.6030E-01
    -35.284  0.0000E+00  0.0000E+00  0.6030E-01  0.6030E-01
    -35.044  0.0000E+00  0.0000E+00  0.6030E-01  0.6030E-01
    -34.803  0.0000E+00  0.0000E+00  0.6030E-01  0.6030E-01
    -34.563  0.0000E+00  0.0000E+00  0.6030E-01  0.6030E-01
    -34.322  0.0000E+00  0.0000E+00  0.6030E-01  0.6030E-01
    -34.082  0.0000E+00  0.0000E+00  0.6030E-01  0.6030E-01
    -33.841  0.0000E+00  0.0000E+00  0.6030E-01  0.6030E-01
    -33.601  0.0000E+00  0.0000E+00  0.6030E-01  0.6030E-01
    -33.360  0.0000E+00  0.0000E+00  0.6030E-01  0.6030E-01
    -33.119  0.0000E+00  0.0000E+00  0.6030E-01  0.6030E-01
    -32.879  0.0000E+00  0.0000E+00  0.6030E-01  0.6030E-01
    -32.638  0.0000E+00  0.0000E+00  0.6030E-01  0.6030E-01
    -32.398  0.0000E+00  0.0000E+00  0.6030E-01  0.6030E-01
    -32.157  0.0000E+00  0.0000E+00  0.6030E-01  0.6030E-01
    -31.917  0.0000E+00  0.0000E+00  0.6030E-01  0.6030E-01
    -31.676  0.0000E+00  0.0000E+00  0.6030E-01  0.6030E-01
    -31.436  0.0000E+00  0.0000E+00  0.6030E-01  0.6030E-01
    -31.195  0.0000E+00  0.0000E+00  0.6030E-01  0.6030E-01
    -30.955  0.0000E+00  0.0000E+00  0.6030E-01  0.6030E-01
    -30.714  0.0000E+00  0.0000E+00  0.6030E-01  0.6030E-01
    -30.474  0.0000E+00  0.0000E+00  0.6030E-01  0.6030E-01
    -30.233  0.0000E+00  0.0000E+00  0.6030E-01  0.6030E-01
    -29.993  0.0000E+00  0.0000E+00  0.6030E-01  0.6030E-01
    -29.752  0.0000E+00  0.0000E+00  0.6030E-01  0.6030E-01
    -29.511  0.0000E+00  0.0000E+00  0.6030E-01  0.6030E-01
    -29.271  0.0000E+00  0.0000E+00  0.6030E-01  0.6030E-01
    -29.030  0.0000E+00  0.0000E+00  0.6030E-01  0.6030E-01
    -28.790  0.0000E+00  0.0000E+00  0.6030E-01  0.6030E-01
    -28.549  0.0000E+00  0.0000E+00  0.6030E-01  0.6030E-01
    -28.309  0.0000E+00  0.0000E+00  0.6030E-01  0.6030E-01
    -28.068  0.0000E+00  0.0000E+00  0.6030E-01  0.6030E-01
    -27.828  0.0000E+00  0.0000E+00  0.6030E-01  0.6030E-01
    -27.587  0.0000E+00  0.0000E+00  0.6030E-01  0.6030E-01
    -27.347  0.0000E+00  0.0000E+00  0.6030E-01  0.6030E-01
    -27.106  0.0000E+00  0.0000E+00  0.6030E-01  0.6030E-01
    -26.866  0.0000E+00  0.0000E+00  0.6030E-01  0.6030E-01
    -26.625  0.0000E+00  0.0000E+00  0.6030E-01  0.6030E-01
    -26.385  0.0000E+00  0.0000E+00  0.6030E-01  0.6030E-01
    -26.144  0.0000E+00  0.0000E+00  0.6030E-01  0.6030E-01
    -25.904  0.0000E+00  0.0000E+00  0.6030E-01  0.6030E-01
    -25.663  0.0000E+00  0.0000E+00  0.6030E-01  0.6030E-01
    -25.422  0.0000E+00  0.0000E+00  0.6030E-01  0.6030E-01
    -25.182  0.0000E+00  0.0000E+00  0.6030E-01  0.6030E-01
    -24.941  0.0000E+00  0.0000E+00  0.6030E-01  0.6030E-01
    -24.701  0.0000E+00  0.0000E+00  0.6030E-01  0.6030E-01
    -24.460  0.0000E+00  0.0000E+00  0.6030E-01  0.6030E-01
    -24.220  0.0000E+00  0.0000E+00  0.6030E-01  0.6030E-01
    -23.979  0.0000E+00  0.0000E+00  0.6030E-01  0.6030E-01
    -23.739  0.0000E+00  0.0000E+00  0.6030E-01  0.6030E-01
    -23.498  0.0000E+00  0.0000E+00  0.6030E-01  0.6030E-01
    -23.258  0.0000E+00  0.0000E+00  0.6030E-01  0.6030E-01
    -23.017  0.0000E+00  0.0000E+00  0.6030E-01  0.6030E-01
    -22.777  0.0000E+00  0.0000E+00  0.6030E-01  0.6030E-01
    -22.536  0.0000E+00  0.0000E+00  0.6030E-01  0.6030E-01
    -22.296  0.0000E+00  0.0000E+00  0.6030E-01  0.6030E-01
    -22.055  0.0000E+00  0.0000E+00  0.6030E-01  0.6030E-01
    -21.814  0.0000E+00  0.0000E+00  0.6030E-01  0.6030E-01
    -21.574  0.0000E+00  0.0000E+00  0.6030E-01  0.6030E-01
    -21.333  0.0000E+00  0.0000E+00  0.6030E-01  0.6030E-01
    -21.093  0.0000E+00  0.0000E+00  0.6030E-01  0.6030E-01
    -20.852  0.0000E+00  0.0000E+00  0.6030E-01  0.6030E-01
    -20.612  0.0000E+00  0.0000E+00  0.6030E-01  0.6030E-01
    -20.371  0.0000E+00  0.0000E+00  0.6030E-01  0.6030E-01
    -20.131  0.0000E+00  0.0000E+00  0.6030E-01  0.6030E-01
    -19.890  0.0000E+00  0.0000E+00  0.6030E-01  0.6030E-01
    -19.650  0.0000E+00  0.0000E+00  0.6030E-01  0.6030E-01
    -19.409  0.0000E+00  0.0000E+00  0.6030E-01  0.6030E-01
    -19.169  0.0000E+00  0.0000E+00  0.6030E-01  0.6030E-01
    -18.928  0.0000E+00  0.0000E+00  0.6030E-01  0.6030E-01
    -18.688  0.0000E+00  0.0000E+00  0.6030E-01  0.6030E-01
    -18.447  0.0000E+00  0.0000E+00  0.6030E-01  0.6030E-01
    -18.207  0.0000E+00  0.0000E+00  0.6030E-01  0.6030E-01
    -17.966  0.0000E+00  0.0000E+00  0.6030E-01  0.6030E-01
    -17.725  0.0000E+00  0.0000E+00  0.6030E-01  0.6030E-01
    -17.485  0.0000E+00  0.0000E+00  0.6030E-01  0.6030E-01
    -17.244  0.0000E+00  0.0000E+00  0.6030E-01  0.6030E-01
    -17.004  0.0000E+00  0.0000E+00  0.6030E-01  0.6030E-01
    -16.763  0.0000E+00  0.0000E+00  0.6030E-01  0.6030E-01
    -16.523  0.0000E+00  0.0000E+00  0.6030E-01  0.6030E-01
    -16.282  0.0000E+00  0.0000E+00  0.6030E-01  0.6030E-01
    -16.042  0.0000E+00  0.0000E+00  0.6030E-01  0.6030E-01
    -15.801  0.0000E+00  0.0000E+00  0.6030E-01  0.6030E-01
    -15.561  0.6083E-03  0.4142E-20  0.6047E-01  0.6030E-01
    -15.320  0.2006E-02  0.1186E-02  0.6156E-01  0.6078E-01
    -15.080  0.4031E-02  0.3241E-02  0.6384E-01  0.6239E-01
    -14.839  0.2683E-02  0.2322E-02  0.6547E-01  0.6445E-01
    -14.599  0.3125E-02  0.1793E-02  0.6728E-01  0.6608E-01
    -14.358  0.4213E-02  0.1307E-02  0.6970E-01  0.6781E-01
    -14.118  0.7011E-02  0.3707E-02  0.7432E-01  0.7148E-01
    -13.877  0.1362E-01  0.4803E-02  0.8156E-01  0.7655E-01
    -13.636  0.1196E-01  0.1221E-01  0.9931E-01  0.8431E-01
    -13.396  0.0000E+00  0.6558E-02  0.1005E+00  0.1005E+00
    -13.155  0.0000E+00  0.0000E+00  0.1005E+00  0.1005E+00
    -12.915  0.0000E+00  0.0000E+00  0.1005E+00  0.1005E+00
    -12.674  0.0000E+00  0.0000E+00  0.1005E+00  0.1005E+00
    -12.434  0.0000E+00  0.0000E+00  0.1005E+00  0.1005E+00
    -12.193  0.0000E+00  0.0000E+00  0.1005E+00  0.1005E+00
    -11.953  0.0000E+00  0.0000E+00  0.1005E+00  0.1005E+00
    -11.712  0.0000E+00  0.0000E+00  0.1005E+00  0.1005E+00
    -11.472  0.0000E+00  0.0000E+00  0.1005E+00  0.1005E+00
    -11.231  0.0000E+00  0.0000E+00  0.1005E+00  0.1005E+00
    -10.991  0.0000E+00  0.0000E+00  0.1005E+00  0.1005E+00
    -10.750  0.0000E+00  0.0000E+00  0.1005E+00  0.1005E+00
    -10.510  0.0000E+00  0.0000E+00  0.1005E+00  0.1005E+00
    -10.269  0.0000E+00  0.0000E+00  0.1005E+00  0.1005E+00
    -10.028  0.0000E+00  0.0000E+00  0.1005E+00  0.1005E+00
     -9.788  0.0000E+00  0.0000E+00  0.1005E+00  0.1005E+00
     -9.547  0.0000E+00  0.0000E+00  0.1005E+00  0.1005E+00
     -9.307  0.0000E+00  0.0000E+00  0.1005E+00  0.1005E+00
     -9.066  0.0000E+00  0.0000E+00  0.1005E+00  0.1005E+00
     -8.826  0.0000E+00  0.0000E+00  0.1005E+00  0.1005E+00
     -8.585  0.0000E+00  0.0000E+00  0.1005E+00  0.1005E+00
     -8.345  0.0000E+00  0.0000E+00  0.1005E+00  0.1005E+00
     -8.104  0.0000E+00  0.0000E+00  0.1005E+00  0.1005E+00
     -7.864  0.0000E+00  0.0000E+00  0.1005E+00  0.1005E+00
     -7.623  0.0000E+00  0.0000E+00  0.1005E+00  0.1005E+00
     -7.383  0.0000E+00  0.0000E+00  0.1005E+00  0.1005E+00
     -7.142  0.0000E+00  0.0000E+00  0.1005E+00  0.1005E+00
     -6.902  0.0000E+00  0.0000E+00  0.1005E+00  0.1005E+00
     -6.661  0.0000E+00  0.0000E+00  0.1005E+00  0.1005E+00
     -6.421  0.0000E+00  0.0000E+00  0.1005E+00  0.1005E+00
     -6.180  0.0000E+00  0.0000E+00  0.1005E+00  0.1005E+00
     -5.939  0.0000E+00  0.0000E+00  0.1005E+00  0.1005E+00
     -5.699  0.0000E+00  0.0000E+00  0.1005E+00  0.1005E+00
     -5.458  0.0000E+00  0.0000E+00  0.1005E+00  0.1005E+00
     -5.218  0.0000E+00  0.0000E+00  0.1005E+00  0.1005E+00
     -4.977  0.0000E+00  0.0000E+00  0.1005E+00  0.1005E+00
     -4.737  0.0000E+00  0.0000E+00  0.1005E+00  0.1005E+00
     -4.496  0.0000E+00  0.0000E+00  0.1005E+00  0.1005E+00
     -4.256  0.0000E+00  0.0000E+00  0.1005E+00  0.1005E+00
     -4.015  0.0000E+00  0.0000E+00  0.1005E+00  0.1005E+00
     -3.775  0.0000E+00  0.0000E+00  0.1005E+00  0.1005E+00
     -3.534  0.0000E+00  0.0000E+00  0.1005E+00  0.1005E+00
     -3.294  0.2024E-03  0.0000E+00  0.1006E+00  0.1005E+00
     -3.053  0.1480E-02  0.0000E+00  0.1012E+00  0.1005E+00
     -2.813  0.3073E-02  0.0000E+00  0.1026E+00  0.1005E+00
     -2.572  0.7330E-02  0.4585E-03  0.1068E+00  0.1007E+00
     -2.331  0.1119E-01  0.1019E-02  0.1145E+00  0.1014E+00
     -2.091  0.8289E-02  0.3260E-02  0.1209E+00  0.1037E+00
     -1.850  0.1417E-01  0.5840E-02  0.1297E+00  0.1085E+00
     -1.610  0.1322E-01  0.5635E-02  0.1393E+00  0.1152E+00
     -1.369  0.5686E-02  0.1348E-01  0.1424E+00  0.1230E+00
     -1.129  0.7557E-02  0.1331E-01  0.1482E+00  0.1333E+00
     -0.888  0.5314E-02  0.7289E-02  0.1528E+00  0.1401E+00
     -0.648  0.8443E-02  0.6818E-02  0.1582E+00  0.1434E+00
     -0.407  0.3334E-02  0.7338E-02  0.1624E+00  0.1497E+00
     -0.167  0.5112E-02  0.7965E-02  0.1664E+00  0.1551E+00
      0.074  0.1329E-01  0.6157E-02  0.1753E+00  0.1597E+00
      0.314  0.1084E-01  0.3292E-02  0.1814E+00  0.1620E+00
      0.555  0.1111E-01  0.9849E-02  0.1895E+00  0.1688E+00
      0.795  0.6314E-02  0.8875E-02  0.1968E+00  0.1758E+00
      1.036  0.4620E-02  0.1283E-01  0.2005E+00  0.1830E+00
      1.276  0.9148E-02  0.5237E-02  0.2070E+00  0.1886E+00
      1.517  0.6624E-02  0.5780E-02  0.2124E+00  0.1926E+00
      1.758  0.9533E-02  0.6937E-02  0.2177E+00  0.1978E+00
      1.998  0.9497E-02  0.5790E-02  0.2229E+00  0.2023E+00
      2.239  0.1278E-01  0.9471E-02  0.2304E+00  0.2088E+00
      2.479  0.1481E-01  0.1130E-01  0.2428E+00  0.2150E+00
      2.720  0.8451E-02  0.3788E-02  0.2500E+00  0.2188E+00
      2.960  0.1126E-01  0.1891E-02  0.2596E+00  0.2205E+00
      3.201  0.3102E-02  0.1492E-03  0.2624E+00  0.2211E+00
      3.441  0.1041E-01  0.0000E+00  0.2686E+00  0.2211E+00
      3.682  0.8140E-02  0.0000E+00  0.2756E+00  0.2211E+00
      3.922  0.3931E-02  0.0000E+00  0.2810E+00  0.2211E+00
      4.163  0.0000E+00  0.0000E+00  0.2814E+00  0.2211E+00
      4.403  0.0000E+00  0.0000E+00  0.2814E+00  0.2211E+00
      4.644  0.0000E+00  0.2234E-03  0.2814E+00  0.2212E+00
      4.884  0.2189E-16  0.1295E-01  0.2814E+00  0.2257E+00
      5.125  0.9847E-02  0.1545E-01  0.2850E+00  0.2377E+00
      5.365  0.9656E-02  0.1803E-01  0.2911E+00  0.2492E+00
      5.606  0.5522E-02  0.1089E-01  0.2966E+00  0.2618E+00
      5.847  0.1814E-02  0.6558E-02  0.2983E+00  0.2658E+00
      6.087  0.6523E-02  0.8958E-02  0.3010E+00  0.2743E+00
      6.328  0.6176E-02  0.6526E-02  0.3058E+00  0.2788E+00
      6.568  0.8357E-02  0.1700E-02  0.3128E+00  0.2819E+00
      6.809  0.8116E-02  0.8003E-02  0.3207E+00  0.2884E+00
      7.049  0.7462E-03  0.6042E-02  0.3216E+00  0.2958E+00
      7.290  0.0000E+00  0.2019E-02  0.3216E+00  0.2982E+00
      7.530  0.0000E+00  0.9033E-02  0.3216E+00  0.3032E+00
      7.771  0.0000E+00  0.1216E-01  0.3216E+00  0.3103E+00
      8.011  0.0000E+00  0.1231E-01  0.3216E+00  0.3184E+00
      8.252  0.0000E+00  0.4478E-03  0.3216E+00  0.3211E+00
      8.492  0.0000E+00  0.7461E-04  0.3216E+00  0.3216E+00
      8.733  0.0000E+00  0.0000E+00  0.3216E+00  0.3216E+00
      8.973  0.0000E+00  0.0000E+00  0.3216E+00  0.3216E+00
      9.214  0.0000E+00  0.0000E+00  0.3216E+00  0.3216E+00
      9.455  0.0000E+00  0.0000E+00  0.3216E+00  0.3216E+00
      9.695  0.0000E+00  0.0000E+00  0.3216E+00  0.3216E+00
      9.936  0.0000E+00  0.0000E+00  0.3216E+00  0.3216E+00
     10.176  0.0000E+00  0.0000E+00  0.3216E+00  0.3216E+00
     10.417  0.0000E+00  0.0000E+00  0.3216E+00  0.3216E+00
     10.657  0.0000E+00  0.0000E+00  0.3216E+00  0.3216E+00
     10.898  0.0000E+00  0.0000E+00  0.3216E+00  0.3216E+00
     11.138  0.7461E-04  0.0000E+00  0.3216E+00  0.3216E+00
     11.379  0.1492E-03  0.0000E+00  0.3217E+00  0.3216E+00
     11.619  0.2701E-03  0.0000E+00  0.3219E+00  0.3216E+00
     11.860  0.7232E-03  0.1492E-03  0.3221E+00  0.3217E+00
     12.100  0.4488E-03  0.2985E-03  0.3222E+00  0.3219E+00
     12.341  0.9146E-03  0.0000E+00  0.3226E+00  0.3221E+00
     12.581  0.4477E-03  0.1122E-08  0.3230E+00  0.3223E+00
     12.822  0.2665E-03  0.2389E-03  0.3233E+00  0.3227E+00
     13.062  0.1321E-02  0.8187E-03  0.3239E+00  0.3232E+00
     13.303  0.4545E-03  0.7922E-03  0.3243E+00  0.3235E+00
     13.544  0.2236E-02  0.8935E-03  0.3251E+00  0.3242E+00
     13.784  0.5323E-04  0.7501E-03  0.3257E+00  0.3245E+00
     14.025  0.1498E-02  0.1195E-02  0.3267E+00  0.3255E+00
     14.265  0.1326E-02  0.1555E-02  0.3277E+00  0.3261E+00
     14.506  0.2924E-02  0.1539E-02  0.3286E+00  0.3272E+00
     14.746  0.3135E-02  0.7049E-03  0.3301E+00  0.3280E+00
     14.987  0.3439E-02  0.1010E-02  0.3321E+00  0.3294E+00
     15.227  0.3712E-02  0.2731E-02  0.3344E+00  0.3311E+00
     15.468  0.2840E-02  0.2990E-02  0.3366E+00  0.3332E+00
     15.708  0.3457E-02  0.3310E-02  0.3390E+00  0.3353E+00
     15.949  0.1952E-02  0.2550E-02  0.3413E+00  0.3372E+00
     16.189  0.2447E-02  0.2585E-02  0.3435E+00  0.3402E+00
     16.430  0.3278E-02  0.2473E-02  0.3454E+00  0.3420E+00
     16.670  0.2109E-02  0.2245E-02  0.3468E+00  0.3441E+00
     16.911  0.3582E-02  0.1343E-02  0.3492E+00  0.3452E+00
     17.152  0.2239E-02  0.1952E-02  0.3519E+00  0.3468E+00
     17.392  0.2508E-02  0.2186E-02  0.3542E+00  0.3494E+00
     17.633  0.3171E-02  0.2919E-02  0.3565E+00  0.3518E+00
     17.873  0.1955E-02  0.4440E-02  0.3582E+00  0.3545E+00
     18.114  0.2241E-02  0.3650E-02  0.3601E+00  0.3563E+00
     18.354  0.1308E-02  0.3683E-02  0.3615E+00  0.3583E+00
     18.595  0.0000E+00  0.1342E-02  0.3618E+00  0.3598E+00
     18.835  0.0000E+00  0.1455E-03  0.3618E+00  0.3614E+00
     19.076  0.0000E+00  0.0000E+00  0.3618E+00  0.3618E+00
     19.316  0.0000E+00  0.0000E+00  0.3618E+00  0.3618E+00
     19.557  0.0000E+00  0.0000E+00  0.3618E+00  0.3618E+00
     19.797  0.0000E+00  0.0000E+00  0.3618E+00  0.3618E+00
     20.038  0.0000E+00  0.0000E+00  0.3618E+00  0.3618E+00
     20.278  0.0000E+00  0.0000E+00  0.3618E+00  0.3618E+00
     20.519  0.0000E+00  0.0000E+00  0.3618E+00  0.3618E+00
     20.759  0.0000E+00  0.0000E+00  0.3618E+00  0.3618E+00
     21.000  0.0000E+00  0.0000E+00  0.3618E+00  0.3618E+00
     21.241  0.0000E+00  0.0000E+00  0.3618E+00  0.3618E+00
     21.481  0.0000E+00  0.0000E+00  0.3618E+00  0.3618E+00
     21.722  0.0000E+00  0.0000E+00  0.3618E+00  0.3618E+00
     21.962  0.0000E+00  0.0000E+00  0.3618E+00  0.3618E+00
     22.203  0.0000E+00  0.0000E+00  0.3618E+00  0.3618E+00
     22.20266114    -49.95661134  301      4.04257757      1.00000000
    -49.957  0.0000E+00  0.0000E+00  0.0000E+00  0.0000E+00  0.0000E+00  0.0000E+00  0.0000E+00  0.0000E+00  0.0000E+00  0.0000E+00  0.0000E+00  0.0000E+00  0.0000E+00  0.0000E+00  0.0000E+00  0.0000E+00  0.0000E+00  0.0000E+00
    -49.716  0.0000E+00  0.0000E+00  0.0000E+00  0.0000E+00  0.0000E+00  0.0000E+00  0.0000E+00  0.0000E+00  0.0000E+00  0.0000E+00  0.0000E+00  0.0000E+00  0.0000E+00  0.0000E+00  0.0000E+00  0.0000E+00  0.0000E+00  0.0000E+00
    -49.476  0.0000E+00  0.0000E+00  0.0000E+00  0.0000E+00  0.0000E+00  0.0000E+00  0.0000E+00  0.0000E+00  0.0000E+00  0.0000E+00  0.0000E+00  0.0000E+00  0.0000E+00  0.0000E+00  0.0000E+00  0.0000E+00  0.0000E+00  0.0000E+00
    -49.235  0.0000E+00  0.0000E+00  0.0000E+00  0.0000E+00  0.0000E+00  0.0000E+00  0.0000E+00  0.0000E+00  0.0000E+00  0.0000E+00  0.0000E+00  0.0000E+00  0.0000E+00  0.0000E+00  0.0000E+00  0.0000E+00  0.0000E+00  0.0000E+00
    -48.994  0.0000E+00  0.0000E+00  0.0000E+00  0.0000E+00  0.0000E+00  0.0000E+00  0.0000E+00  0.0000E+00  0.0000E+00  0.0000E+00  0.0000E+00  0.0000E+00  0.0000E+00  0.0000E+00  0.0000E+00  0.0000E+00  0.0000E+00  0.0000E+00
    -48.754  0.0000E+00  0.0000E+00  0.0000E+00  0.0000E+00  0.0000E+00  0.0000E+00  0.0000E+00  0.0000E+00  0.0000E+00  0.0000E+00  0.0000E+00  0.0000E+00  0.0000E+00  0.0000E+00  0.0000E+00  0.0000E+00  0.0000E+00  0.0000E+00
    -48.513  0.0000E+00  0.0000E+00  0.0000E+00  0.0000E+00  0.0000E+00  0.0000E+00  0.0000E+00  0.0000E+00  0.0000E+00  0.0000E+00  0.0000E+00  0.0000E+00  0.0000E+00  0.0000E+00  0.0000E+00  0.0000E+00  0.0000E+00  0.0000E+00
    -48.273  0.0000E+00  0.0000E+00  0.0000E+00  0.0000E+00  0.0000E+00  0.0000E+00  0.0000E+00  0.0000E+00  0.0000E+00  0.0000E+00  0.0000E+00  0.0000E+00  0.0000E+00  0.0000E+00  0.0000E+00  0.0000E+00  0.0000E+00  0.0000E+00
    -48.032  0.0000E+00  0.0000E+00  0.0000E+00  0.0000E+00  0.0000E+00  0.0000E+00  0.0000E+00  0.0000E+00  0.0000E+00  0.0000E+00  0.0000E+00  0.0000E+00  0.0000E+00  0.0000E+00  0.0000E+00  0.0000E+00  0.0000E+00  0.0000E+00
    -47.792  0.0000E+00  0.0000E+00  0.0000E+00  0.0000E+00  0.0000E+00  0.0000E+00  0.0000E+00  0.0000E+00  0.0000E+00  0.0000E+00  0.0000E+00  0.0000E+00  0.0000E+00  0.0000E+00  0.0000E+00  0.0000E+00  0.0000E+00  0.0000E+00
    -47.551  0.0000E+00  0.0000E+00  0.0000E+00  0.0000E+00  0.0000E+00  0.0000E+00  0.0000E+00  0.0000E+00  0.0000E+00  0.0000E+00  0.0000E+00  0.0000E+00  0.0000E+00  0.0000E+00  0.0000E+00  0.0000E+00  0.0000E+00  0.0000E+00
    -47.311  0.0000E+00  0.0000E+00  0.0000E+00  0.0000E+00  0.0000E+00  0.0000E+00  0.0000E+00  0.0000E+00  0.0000E+00  0.0000E+00  0.0000E+00  0.0000E+00  0.0000E+00  0.0000E+00  0.0000E+00  0.0000E+00  0.0000E+00  0.0000E+00
    -47.070  0.0000E+00  0.0000E+00  0.0000E+00  0.0000E+00  0.0000E+00  0.0000E+00  0.0000E+00  0.0000E+00  0.0000E+00  0.0000E+00  0.0000E+00  0.0000E+00  0.0000E+00  0.0000E+00  0.0000E+00  0.0000E+00  0.0000E+00  0.0000E+00
    -46.830  0.0000E+00  0.0000E+00  0.0000E+00  0.0000E+00  0.0000E+00  0.0000E+00  0.0000E+00  0.0000E+00  0.0000E+00  0.0000E+00  0.0000E+00  0.0000E+00  0.0000E+00  0.0000E+00  0.0000E+00  0.0000E+00  0.0000E+00  0.0000E+00
    -46.589  0.2323E-04  0.0000E+00  0.1818E-02  0.0000E+00  0.2380E+00  0.0000E+00  0.2528E+01  0.0000E+00  0.6224E-06  0.0000E+00  0.1088E-05  0.0000E+00  0.1054E-04  0.0000E+00  0.4323E-05  0.0000E+00  0.1866E-04  0.0000E+00
    -46.349  0.0000E+00  0.0000E+00  0.0000E+00  0.0000E+00  0.0000E+00  0.0000E+00  0.0000E+00  0.0000E+00  0.0000E+00  0.0000E+00  0.0000E+00  0.0000E+00  0.0000E+00  0.0000E+00  0.0000E+00  0.0000E+00  0.0000E+00  0.0000E+00
    -46.108  0.0000E+00  0.0000E+00  0.0000E+00  0.0000E+00  0.0000E+00  0.0000E+00  0.0000E+00  0.0000E+00  0.0000E+00  0.0000E+00  0.0000E+00  0.0000E+00  0.0000E+00  0.0000E+00  0.0000E+00  0.0000E+00  0.0000E+00  0.0000E+00
    -45.868  0.0000E+00  0.0000E+00  0.0000E+00  0.0000E+00  0.0000E+00  0.0000E+00  0.0000E+00  0.0000E+00  0.0000E+00  0.0000E+00  0.0000E+00  0.0000E+00  0.0000E+00  0.0000E+00  0.0000E+00  0.0000E+00  0.0000E+00  0.0000E+00
    -45.627  0.0000E+00  0.0000E+00  0.0000E+00  0.0000E+00  0.0000E+00  0.0000E+00  0.0000E+00  0.0000E+00  0.0000E+00  0.0000E+00  0.0000E+00  0.0000E+00  0.0000E+00  0.0000E+00  0.0000E+00  0.0000E+00  0.0000E+00  0.0000E+00
    -45.387  0.0000E+00  0.0000E+00  0.0000E+00  0.0000E+00  0.0000E+00  0.0000E+00  0.0000E+00  0.0000E+00  0.0000E+00  0.0000E+00  0.0000E+00  0.0000E+00  0.0000E+00  0.0000E+00  0.0000E+00  0.0000E+00  0.0000E+00  0.0000E+00
    -45.146  0.0000E+00  0.0000E+00  0.0000E+00  0.0000E+00  0.0000E+00  0.0000E+00  0.0000E+00  0.0000E+00  0.0000E+00  0.0000E+00  0.0000E+00  0.0000E+00  0.0000E+00  0.0000E+00  0.0000E+00  0.0000E+00  0.0000E+00  0.0000E+00
    -44.905  0.0000E+00  0.0000E+00  0.0000E+00  0.0000E+00  0.0000E+00  0.0000E+00  0.0000E+00  0.0000E+00  0.0000E+00  0.0000E+00  0.0000E+00  0.0000E+00  0.0000E+00  0.0000E+00  0.0000E+00  0.0000E+00  0.0000E+00  0.0000E+00
    -44.665  0.0000E+00  0.0000E+00  0.0000E+00  0.0000E+00  0.0000E+00  0.0000E+00  0.0000E+00  0.0000E+00  0.0000E+00  0.0000E+00  0.0000E+00  0.0000E+00  0.0000E+00  0.0000E+00  0.0000E+00  0.0000E+00  0.0000E+00  0.0000E+00
    -44.424  0.0000E+00  0.0000E+00  0.0000E+00  0.0000E+00  0.0000E+00  0.0000E+00  0.0000E+00  0.0000E+00  0.0000E+00  0.0000E+00  0.0000E+00  0.0000E+00  0.0000E+00  0.0000E+00  0.0000E+00  0.0000E+00  0.0000E+00  0.0000E+00
    -44.184  0.0000E+00  0.0000E+00  0.0000E+00  0.0000E+00  0.0000E+00  0.0000E+00  0.0000E+00  0.0000E+00  0.0000E+00  0.0000E+00  0.0000E+00  0.0000E+00  0.0000E+00  0.0000E+00  0.0000E+00  0.0000E+00  0.0000E+00  0.0000E+00
    -43.943  0.0000E+00  0.0000E+00  0.0000E+00  0.0000E+00  0.0000E+00  0.0000E+00  0.0000E+00  0.0000E+00  0.0000E+00  0.0000E+00  0.0000E+00  0.0000E+00  0.0000E+00  0.0000E+00  0.0000E+00  0.0000E+00  0.0000E+00  0.0000E+00
    -43.703  0.0000E+00  0.4682E-16  0.0000E+00  0.1695E-13  0.0000E+00  0.5301E-12  0.0000E+00  0.2140E-10  0.0000E+00  0.1299E-16  0.0000E+00  0.1077E-16  0.0000E+00  0.6972E-16  0.0000E+00  0.3438E-16  0.0000E+00  0.1218E-17
    -43.462  0.0000E+00  0.6201E-05  0.0000E+00  0.5636E-02  0.0000E+00  0.2749E+01  0.0000E+00  0.7656E+00  0.0000E+00  0.6294E-06  0.0000E+00  0.1838E-05  0.0000E+00  0.1964E-04  0.0000E+00  0.1523E-04  0.0000E+00  0.8572E-06
    -43.222  0.0000E+00  0.0000E+00  0.0000E+00  0.0000E+00  0.0000E+00  0.0000E+00  0.0000E+00  0.0000E+00  0.0000E+00  0.0000E+00  0.0000E+00  0.0000E+00  0.0000E+00  0.0000E+00  0.0000E+00  0.0000E+00  0.0000E+00  0.0000E+00
    -42.981  0.0000E+00  0.0000E+00  0.0000E+00  0.0000E+00  0.0000E+00  0.0000E+00  0.0000E+00  0.0000E+00  0.0000E+00  0.0000E+00  0.0000E+00  0.0000E+00  0.0000E+00  0.0000E+00  0.0000E+00  0.0000E+00  0.0000E+00  0.0000E+00
    -42.741  0.0000E+00  0.0000E+00  0.0000E+00  0.0000E+00  0.0000E+00  0.0000E+00  0.0000E+00  0.0000E+00  0.0000E+00  0.0000E+00  0.0000E+00  0.0000E+00  0.0000E+00  0.0000E+00  0.0000E+00  0.0000E+00  0.0000E+00  0.0000E+00
    -42.500  0.0000E+00  0.0000E+00  0.0000E+00  0.0000E+00  0.0000E+00  0.0000E+00  0.0000E+00  0.0000E+00  0.0000E+00  0.0000E+00  0.0000E+00  0.0000E+00  0.0000E+00  0.0000E+00  0.0000E+00  0.0000E+00  0.0000E+00  0.0000E+00
    -42.260  0.0000E+00  0.0000E+00  0.0000E+00  0.0000E+00  0.0000E+00  0.0000E+00  0.0000E+00  0.0000E+00  0.0000E+00  0.0000E+00  0.0000E+00  0.0000E+00  0.0000E+00  0.0000E+00  0.0000E+00  0.0000E+00  0.0000E+00  0.0000E+00
    -42.019  0.0000E+00  0.0000E+00  0.0000E+00  0.0000E+00  0.0000E+00  0.0000E+00  0.0000E+00  0.0000E+00  0.0000E+00  0.0000E+00  0.0000E+00  0.0000E+00  0.0000E+00  0.0000E+00  0.0000E+00  0.0000E+00  0.0000E+00  0.0000E+00
    -41.779  0.0000E+00  0.0000E+00  0.0000E+00  0.0000E+00  0.0000E+00  0.0000E+00  0.0000E+00  0.0000E+00  0.0000E+00  0.0000E+00  0.0000E+00  0.0000E+00  0.0000E+00  0.0000E+00  0.0000E+00  0.0000E+00  0.0000E+00  0.0000E+00
    -41.538  0.0000E+00  0.0000E+00  0.0000E+00  0.0000E+00  0.0000E+00  0.0000E+00  0.0000E+00  0.0000E+00  0.0000E+00  0.0000E+00  0.0000E+00  0.0000E+00  0.0000E+00  0.0000E+00  0.0000E+00  0.0000E+00  0.0000E+00  0.0000E+00
    -41.297  0.0000E+00  0.0000E+00  0.0000E+00  0.0000E+00  0.0000E+00  0.0000E+00  0.0000E+00  0.0000E+00  0.0000E+00  0.0000E+00  0.0000E+00  0.0000E+00  0.0000E+00  0.0000E+00  0.0000E+00  0.0000E+00  0.0000E+00  0.0000E+00
    -41.057  0.0000E+00  0.0000E+00  0.0000E+00  0.0000E+00  0.0000E+00  0.0000E+00  0.0000E+00  0.0000E+00  0.0000E+00  0.0000E+00  0.0000E+00  0.0000E+00  0.0000E+00  0.0000E+00  0.0000E+00  0.0000E+00  0.0000E+00  0.0000E+00
    -40.816  0.0000E+00  0.0000E+00  0.0000E+00  0.0000E+00  0.0000E+00  0.0000E+00  0.0000E+00  0.0000E+00  0.0000E+00  0.0000E+00  0.0000E+00  0.0000E+00  0.0000E+00  0.0000E+00  0.0000E+00  0.0000E+00  0.0000E+00  0.0000E+00
    -40.576  0.0000E+00  0.0000E+00  0.0000E+00  0.0000E+00  0.0000E+00  0.0000E+00  0.0000E+00  0.0000E+00  0.0000E+00  0.0000E+00  0.0000E+00  0.0000E+00  0.0000E+00  0.0000E+00  0.0000E+00  0.0000E+00  0.0000E+00  0.0000E+00
    -40.335  0.0000E+00  0.0000E+00  0.0000E+00  0.0000E+00  0.0000E+00  0.0000E+00  0.0000E+00  0.0000E+00  0.0000E+00  0.0000E+00  0.0000E+00  0.0000E+00  0.0000E+00  0.0000E+00  0.0000E+00  0.0000E+00  0.0000E+00  0.0000E+00
    -40.095  0.0000E+00  0.0000E+00  0.0000E+00  0.0000E+00  0.0000E+00  0.0000E+00  0.0000E+00  0.0000E+00  0.0000E+00  0.0000E+00  0.0000E+00  0.0000E+00  0.0000E+00  0.0000E+00  0.0000E+00  0.0000E+00  0.0000E+00  0.0000E+00
    -39.854  0.0000E+00  0.0000E+00  0.0000E+00  0.0000E+00  0.0000E+00  0.0000E+00  0.0000E+00  0.0000E+00  0.0000E+00  0.0000E+00  0.0000E+00  0.0000E+00  0.0000E+00  0.0000E+00  0.0000E+00  0.0000E+00  0.0000E+00  0.0000E+00
    -39.614  0.0000E+00  0.0000E+00  0.0000E+00  0.0000E+00  0.0000E+00  0.0000E+00  0.0000E+00  0.0000E+00  0.0000E+00  0.0000E+00  0.0000E+00  0.0000E+00  0.0000E+00  0.0000E+00  0.0000E+00  0.0000E+00  0.0000E+00  0.0000E+00
    -39.373  0.0000E+00  0.0000E+00  0.0000E+00  0.0000E+00  0.0000E+00  0.0000E+00  0.0000E+00  0.0000E+00  0.0000E+00  0.0000E+00  0.0000E+00  0.0000E+00  0.0000E+00  0.0000E+00  0.0000E+00  0.0000E+00  0.0000E+00  0.0000E+00
    -39.133  0.0000E+00  0.0000E+00  0.0000E+00  0.0000E+00  0.0000E+00  0.0000E+00  0.0000E+00  0.0000E+00  0.0000E+00  0.0000E+00  0.0000E+00  0.0000E+00  0.0000E+00  0.0000E+00  0.0000E+00  0.0000E+00  0.0000E+00  0.0000E+00
    -38.892  0.0000E+00  0.0000E+00  0.0000E+00  0.0000E+00  0.0000E+00  0.0000E+00  0.0000E+00  0.0000E+00  0.0000E+00  0.0000E+00  0.0000E+00  0.0000E+00  0.0000E+00  0.0000E+00  0.0000E+00  0.0000E+00  0.0000E+00  0.0000E+00
    -38.652  0.0000E+00  0.0000E+00  0.0000E+00  0.0000E+00  0.0000E+00  0.0000E+00  0.0000E+00  0.0000E+00  0.0000E+00  0.0000E+00  0.0000E+00  0.0000E+00  0.0000E+00  0.0000E+00  0.0000E+00  0.0000E+00  0.0000E+00  0.0000E+00
    -38.411  0.0000E+00  0.0000E+00  0.0000E+00  0.0000E+00  0.0000E+00  0.0000E+00  0.0000E+00  0.0000E+00  0.0000E+00  0.0000E+00  0.0000E+00  0.0000E+00  0.0000E+00  0.0000E+00  0.0000E+00  0.0000E+00  0.0000E+00  0.0000E+00
    -38.171  0.0000E+00  0.0000E+00  0.0000E+00  0.0000E+00  0.0000E+00  0.0000E+00  0.0000E+00  0.0000E+00  0.0000E+00  0.0000E+00  0.0000E+00  0.0000E+00  0.0000E+00  0.0000E+00  0.0000E+00  0.0000E+00  0.0000E+00  0.0000E+00
    -37.930  0.0000E+00  0.0000E+00  0.0000E+00  0.0000E+00  0.0000E+00  0.0000E+00  0.0000E+00  0.0000E+00  0.0000E+00  0.0000E+00  0.0000E+00  0.0000E+00  0.0000E+00  0.0000E+00  0.0000E+00  0.0000E+00  0.0000E+00  0.0000E+00