   12   12  199    2
  0.1050332E+02  0.2916331E-09  0.4580966E-09  0.9434393E-09  0.5000000E-15
  1.000000000000000E-004
  CAR 
 unknown system                          
    100    142     72
 
  0.0000000E+00  0.0000000E+00  0.0000000E+00  0.3571429E-02
    1      -46.587310    -43.546835   1.000000   1.000000
    2      -46.578299    -43.541818   1.000000   1.000000
    3      -46.577731    -43.537907   1.000000   1.000000
    4      -46.575171    -43.534364   1.000000   1.000000
    5      -46.562930    -43.524024   1.000000   1.000000
    6      -46.559804    -43.520106   1.000000   1.000000
    7      -46.525856    -43.465455   1.000000   1.000000
    8      -46.524202    -43.452838   1.000000   1.000000
    9      -46.500808    -43.389867   1.000000   1.000000
   10      -46.495883    -43.377071   1.000000   1.000000
   11      -46.492222    -43.374595   1.000000   1.000000
   12      -46.489017    -43.361602   1.000000   1.000000
   13      -15.656305    -15.501849   1.000000   1.000000
   14      -15.059460    -14.957177   1.000000   1.000000
   15      -14.775999    -14.556722   1.000000   1.000000
   16      -13.997818    -13.844607   1.000000   1.000000
   17      -13.746181    -13.578443   1.000000   1.000000
   18      -13.674665    -13.510383   1.000000   1.000000
   19      -13.601746    -13.445139   1.000000   1.000000
   20      -13.565068    -13.406330   1.000000   1.000000
   21       -3.331235     -2.720244   1.000000   1.000000
   22       -2.679252     -2.020064   1.000000   1.000000
   23       -2.590399     -1.750224   1.000000   1.000000
   24       -2.408238     -1.569721   1.000000   1.000000
   25       -1.967040     -1.209294   1.000000   1.000000
   26       -1.716314     -1.086348   1.000000   1.000000
   27       -1.660164     -0.914498   1.000000   1.000000
   28       -1.609002     -0.887046   1.000000   1.000000
   29       -1.395876     -0.593869   1.000000   1.000000
   30       -1.386834     -0.547722   1.000000   1.000000
   31       -1.243585     -0.507796   1.000000   1.000000
   32       -0.562360     -0.010623   1.000000   1.000000
   33       -0.464565      0.282007   1.000000   1.000000
   34        0.239436      0.950546   1.000000   1.000000
   35        0.545889      0.977030   1.000000   1.000000
   36        0.583793      1.079403   1.000000   1.000000
   37        0.722354      1.244081   1.000000   1.000000
   38        0.807007      1.622835   1.000000   1.000000
   39        0.853504      1.740767   1.000000   1.000000
   40        1.337096      2.506825   1.000000   1.000000
   41        1.527698      2.687880   1.000000   1.000000
   42        1.576484      2.726780   1.000000   1.000000
   43        1.726384      3.079658   1.000000   1.000000
   44        2.100568      3.297550   1.000000   1.000000
   45        2.329132      4.603364   1.000000   0.000000
   46        2.335117      4.715931   1.000000   0.000000
   47        2.495113      4.730177   1.000000   0.000000
   48        2.584007      5.065850   1.000000   0.000000
   49        2.628424      5.118359   1.000000   0.000000
   50        2.671579      5.126269   1.000000   0.000000
   51        2.720363      5.327577   1.000000   0.000000
   52        2.901397      5.360199   1.000000   0.000000
   53        3.094224      5.450495   1.000000   0.000000
   54        3.341445      5.718553   1.000000   0.000000
   55        3.621367      6.369519   1.000000   0.000000
   56        3.830270      6.373124   1.000000   0.000000
   57        4.935981      6.413823   0.000000   0.000000
   58        5.368362      6.907302   0.000000   0.000000
   59        6.383058      7.578207   0.000000   0.000000
   60        6.497371      7.703390   0.000000   0.000000
   61        6.501023      7.919828   0.000000   0.000000
   62        6.629195      7.939157   0.000000   0.000000
   63        6.641850      8.005906   0.000000   0.000000
   64        7.072894      8.461589   0.000000   0.000000
   65       11.076625     11.495053   0.000000   0.000000
   66       13.071337     13.436942   0.000000   0.000000
   67       13.698886     14.040376   0.000000   0.000000
   68       14.710086     15.210539   0.000000   0.000000
   69       15.038253     15.453614   0.000000   0.000000
   70       16.202257     16.812232   0.000000   0.000000
   71       16.478491     17.069346   0.000000   0.000000
   72       17.355605     17.675466   0.000000   0.000000
 
  0.1000000E+00 -0.5581248E-23  0.0000000E+00  0.7142857E-02
    1      -46.588058    -43.553346   1.000000   1.000000
    2      -46.586358    -43.550338   1.000000   1.000000
    3      -46.585663    -43.546632   1.000000   1.000000
    4      -46.582451    -43.544292   1.000000   1.000000
    5      -46.568002    -43.528798   1.000000   1.000000
    6      -46.565820    -43.522995   1.000000   1.000000
    7      -46.524652    -43.464475   1.000000   1.000000
    8      -46.522899    -43.453094   1.000000   1.000000
    9      -46.499571    -43.387947   1.000000   1.000000
   10      -46.495893    -43.375560   1.000000   1.000000
   11      -46.491646    -43.373327   1.000000   1.000000
   12      -46.488438    -43.360893   1.000000   1.000000
   13      -15.562860    -15.409647   1.000000   1.000000
   14      -14.988991    -14.889046   1.000000   1.000000
   15      -14.705900    -14.485875   1.000000   1.000000
   16      -13.965778    -13.817408   1.000000   1.000000
   17      -13.754574    -13.584844   1.000000   1.000000
   18      -13.682908    -13.533546   1.000000   1.000000
   19      -13.624854    -13.451187   1.000000   1.000000
   20      -13.583538    -13.419434   1.000000   1.000000
   21       -3.196331     -2.598413   1.000000   1.000000
   22       -2.567063     -1.924239   1.000000   1.000000
   23       -2.492476     -1.669977   1.000000   1.000000
   24       -2.307654     -1.486904   1.000000   1.000000
   25       -1.888926     -1.194651   1.000000   1.000000
   26       -1.866857     -1.141522   1.000000   1.000000
   27       -1.820395     -1.069345   1.000000   1.000000
   28       -1.712707     -1.014470   1.000000   1.000000
   29       -1.319485     -0.589250   1.000000   1.000000
   30       -1.223865     -0.481664   1.000000   1.000000
   31       -1.176385     -0.332402   1.000000   1.000000
   32       -0.473929      0.042000   1.000000   1.000000
   33       -0.399258      0.346788   1.000000   1.000000
   34       -0.053161      0.647715   1.000000   1.000000
   35        0.322688      0.930836   1.000000   1.000000
   36        0.335292      0.971627   1.000000   1.000000
   37        0.681917      1.066206   1.000000   1.000000
   38        0.823178      1.449165   1.000000   1.000000
   39        0.851788      1.786738   1.000000   1.000000
   40        1.093525      2.058470   1.000000   1.000000
   41        1.313827      2.494789   1.000000   1.000000
   42        1.485093      2.801273   1.000000   1.000000
   43        1.587709      3.043527   1.000000   1.000000
   44        2.233965      3.165197   1.000000   1.000000
   45        2.256414      4.719021   1.000000   0.000000
   46        2.284090      4.738932   1.000000   0.000000
   47        2.455628      4.831366   1.000000   0.000000
   48        2.536342      5.215385   1.000000   0.000000
   49        2.688675      5.255283   1.000000   0.000000
   50        2.832276      5.265238   1.000000   0.000000
   51        2.887517      5.269662   1.000000   0.000000
   52        2.920262      5.465109   1.000000   0.000000
   53        3.276203      5.540190   1.000000   0.000000
   54        3.335109      5.693179   1.000000   0.000000
   55        3.648918      6.351414   1.000000   0.000000
   56        3.836713      6.396436   1.000000   0.000000
   57        5.000370      6.464207   0.000000   0.000000
   58        5.393190      6.852862   0.000000   0.000000
   59        6.175426      7.467450   0.000000   0.000000
   60        6.244375      7.477902   0.000000   0.000000
   61        6.382465      7.751529   0.000000   0.000000
   62        6.432440      7.754606   0.000000   0.000000
   63        6.564185      7.992926   0.000000   0.000000
   64        7.011984      8.379024   0.000000   0.000000
   65       11.422409     11.818013   0.000000   0.000000
   66       13.358231     13.715588   0.000000   0.000000
   67       13.940469     14.274306   0.000000   0.000000
   68       15.098090     15.597289   0.000000   0.000000
   69       15.430026     15.845717   0.000000   0.000000
   70       16.487095     17.082441   0.000000   0.000000
   71       16.784550     17.356115   0.000000   0.000000
   72       17.426170     17.731544   0.000000   0.000000
 
  0.2000000E+00  0.2062701E-23 -0.2646978E-22  0.7142857E-02
    1      -46.613134    -43.583007   1.000000   1.000000
    2      -46.612065    -43.581687   1.000000   1.000000
    3      -46.606264    -43.574937   1.000000   1.000000
    4      -46.601980    -43.569406   1.000000   1.000000
    5      -46.570849    -43.527635   1.000000   1.000000
    6      -46.561453    -43.515156   1.000000   1.000000
    7      -46.522661    -43.463465   1.000000   1.000000
    8      -46.520250    -43.454855   1.000000   1.000000
    9      -46.496484    -43.382575   1.000000   1.000000
   10      -46.495856    -43.371697   1.000000   1.000000
   11      -46.490395    -43.370034   1.000000   1.000000
   12      -46.487126    -43.359288   1.000000   1.000000
   13      -15.300458    -15.151463   1.000000   1.000000
   14      -14.797254    -14.703921   1.000000   1.000000
   15      -14.516322    -14.293672   1.000000   1.000000
   16      -13.894880    -13.764404   1.000000   1.000000
   17      -13.775747    -13.600306   1.000000   1.000000
   18      -13.704582    -13.600215   1.000000   1.000000
   19      -13.690507    -13.467149   1.000000   1.000000
   20      -13.633413    -13.450148   1.000000   1.000000
   21       -2.824967     -2.265743   1.000000   1.000000
   22       -2.279111     -1.688538   1.000000   1.000000
   23       -2.236450     -1.471509   1.000000   1.000000
   24       -2.076499     -1.346186   1.000000   1.000000
   25       -2.017191     -1.304854   1.000000   1.000000
   26       -2.014977     -1.222405   1.000000   1.000000
   27       -1.825512     -1.162574   1.000000   1.000000
   28       -1.702075     -1.003117   1.000000   1.000000
   29       -1.373452     -0.608408   1.000000   1.000000
   30       -1.009467     -0.395870   1.000000   1.000000
   31       -0.937330     -0.214178   1.000000   1.000000
   32       -0.813179     -0.133950   1.000000   1.000000
   33       -0.675238      0.007055   1.000000   1.000000
   34       -0.388450      0.125821   1.000000   1.000000
   35        0.106090      0.854830   1.000000   1.000000
   36        0.162315      0.868229   1.000000   1.000000
   37        0.409642      1.130143   1.000000   1.000000
   38        0.631780      1.247481   1.000000   1.000000
   39        0.664187      1.372263   1.000000   1.000000
   40        0.958947      1.652834   1.000000   1.000000
   41        1.154713      2.209645   1.000000   1.000000
   42        1.276336      2.650586   1.000000   1.000000
   43        1.333344      2.817856   1.000000   1.000000
   44        1.988318      2.895717   1.000000   1.000000
   45        2.232542      4.816228   1.000000   0.000000
   46        2.396218      4.974191   1.000000   0.000000
   47        2.415260      5.044369   1.000000   0.000000
   48        2.515531      5.305967   1.000000   0.000000
   49        2.848447      5.306320   1.000000   0.000000
   50        2.858511      5.390768   1.000000   0.000000
   51        2.999643      5.400860   1.000000   0.000000
   52        3.030486      5.513229   1.000000   0.000000
   53        3.255523      5.771183   1.000000   0.000000
   54        3.485458      5.779673   1.000000   0.000000
   55        3.737067      6.270197   1.000000   0.000000
   56        3.809167      6.402467   1.000000   0.000000
   57        5.149902      6.633586   0.000000   0.000000
   58        5.228451      6.664579   0.000000   0.000000
   59        5.660273      7.053470   0.000000   0.000000
   60        5.906499      7.400597   0.000000   0.000000
   61        6.044765      7.459623   0.000000   0.000000
   62        6.224742      7.486128   0.000000   0.000000
   63        6.577877      7.932566   0.000000   0.000000
   64        6.782226      8.116153   0.000000   0.000000
   65       12.317631     12.667324   0.000000   0.000000
   66       14.045625     14.378579   0.000000   0.000000
   67       14.520894     14.834458   0.000000   0.000000
   68       16.061860     16.557263   0.000000   0.000000
   69       16.393295     16.810013   0.000000   0.000000
   70       17.226511     17.794854   0.000000   0.000000
   71       17.546699     17.881882   0.000000   0.000000
   72       17.570504     18.077977   0.000000   0.000000
 
  0.3000000E+00 -0.4984006E-22  0.2646978E-22  0.7142857E-02
    1      -46.643534    -43.619075   1.000000   1.000000
    2      -46.643310    -43.618745   1.000000   1.000000
    3      -46.638623    -43.613602   1.000000   1.000000
    4      -46.634273    -43.608131   1.000000   1.000000
    5      -46.559860    -43.513707   1.000000   1.000000
    6      -46.551869    -43.503181   1.000000   1.000000
    7      -46.522235    -43.464803   1.000000   1.000000
    8      -46.519689    -43.459729   1.000000   1.000000
    9      -46.494724    -43.375105   1.000000   1.000000
   10      -46.492681    -43.366906   1.000000   1.000000
   11      -46.488968    -43.365886   1.000000   1.000000
   12      -46.485993    -43.357948   1.000000   1.000000
   13      -14.920896    -14.780361   1.000000   1.000000
   14      -14.538738    -14.454109   1.000000   1.000000
   15      -14.264832    -14.035733   1.000000   1.000000
   16      -13.855863    -13.756697   1.000000   1.000000
   17      -13.797768    -13.702758   1.000000   1.000000
   18      -13.788309    -13.613237   1.000000   1.000000
   19      -13.733798    -13.490239   1.000000   1.000000
   20      -13.694458    -13.478262   1.000000   1.000000
   21       -2.356428     -1.834294   1.000000   1.000000
   22       -2.167018     -1.457562   1.000000   1.000000
   23       -2.104574     -1.449797   1.000000   1.000000
   24       -2.040709     -1.393274   1.000000   1.000000
   25       -1.964093     -1.263247   1.000000   1.000000
   26       -1.944773     -1.245983   1.000000   1.000000
   27       -1.903882     -1.244768   1.000000   1.000000
   28       -1.779209     -1.141711   1.000000   1.000000
   29       -1.303254     -0.758528   1.000000   1.000000
   30       -1.170073     -0.721678   1.000000   1.000000
   31       -1.140607     -0.304863   1.000000   1.000000
   32       -0.809401     -0.231507   1.000000   1.000000
   33       -0.571979      0.122830   1.000000   1.000000
   34       -0.395195      0.245299   1.000000   1.000000
   35       -0.210362      0.492080   1.000000   1.000000
   36        0.175072      0.764645   1.000000   1.000000
   37        0.302563      1.004390   1.000000   1.000000
   38        0.351690      1.167390   1.000000   1.000000
   39        0.441859      1.186546   1.000000   1.000000
   40        0.923893      1.475462   1.000000   1.000000
   41        1.143221      2.107120   1.000000   1.000000
   42        1.210763      2.190937   1.000000   1.000000
   43        1.250558      2.473154   1.000000   1.000000
   44        1.570360      2.597931   1.000000   1.000000
   45        2.110338      4.804627   1.000000   0.000000
   46        2.125456      5.039073   1.000000   0.000000
   47        2.363524      5.158378   1.000000   0.000000
   48        2.487777      5.353559   1.000000   0.000000
   49        2.753900      5.356268   1.000000   0.000000
   50        2.773143      5.394346   1.000000   0.000000
   51        2.799843      5.492211   1.000000   0.000000
   52        2.964272      5.494458   1.000000   0.000000
   53        3.442280      5.907214   1.000000   0.000000
   54        3.488279      5.922949   1.000000   0.000000
   55        3.702240      6.209983   1.000000   0.000000
   56        3.809564      6.307738   1.000000   0.000000
   57        4.970777      6.541665   0.000000   0.000000
   58        5.238201      6.780117   0.000000   0.000000
   59        5.294565      6.780700   0.000000   0.000000
   60        5.545549      7.128732   0.000000   0.000000
   61        5.917560      7.388834   0.000000   0.000000
   62        6.472405      7.731769   0.000000   0.000000
   63        6.477286      7.783151   0.000000   0.000000
   64        6.643067      7.925388   0.000000   0.000000
   65       13.491457     13.797730   0.000000   0.000000
   66       14.844676     15.151711   0.000000   0.000000
   67       15.183798     15.476813   0.000000   0.000000
   68       17.205279     17.694398   0.000000   0.000000
   69       17.511424     17.932765   0.000000   0.000000
   70       17.798216     18.136603   0.000000   0.000000
   71       17.931354     18.304971   0.000000   0.000000
   72       18.072783     18.646622   0.000000   0.000000
 
  0.4000000E+00  0.4125402E-23 -0.5293956E-22  0.7142857E-02
    1      -46.668143    -43.648320   1.000000   1.000000
    2      -46.666741    -43.646501   1.000000   1.000000
    3      -46.665412    -43.645300   1.000000   1.000000
    4      -46.661860    -43.640814   1.000000   1.000000
    5      -46.546443    -43.497202   1.000000   1.000000
    6      -46.541112    -43.490066   1.000000   1.000000
    7      -46.525051    -43.469659   1.000000   1.000000
    8      -46.524297    -43.468601   1.000000   1.000000
    9      -46.491566    -43.367415   1.000000   1.000000
   10      -46.489477    -43.363000   1.000000   1.000000
   11      -46.487829    -43.362499   1.000000   1.000000
   12      -46.486112    -43.358333   1.000000   1.000000
   13      -14.506273    -14.380186   1.000000   1.000000
   14      -14.284062    -14.204232   1.000000   1.000000
   15      -14.040376    -13.844237   1.000000   1.000000
   16      -13.933018    -13.834155   1.000000   1.000000
   17      -13.898966    -13.788693   1.000000   1.000000
   18      -13.805250    -13.607650   1.000000   1.000000
   19      -13.773112    -13.528997   1.000000   1.000000
   20      -13.743554    -13.514763   1.000000   1.000000
   21       -2.600011     -1.945121   1.000000   1.000000
   22       -2.471205     -1.852276   1.000000   1.000000
   23       -2.105578     -1.509013   1.000000   1.000000
   24       -2.091549     -1.353255   1.000000   1.000000
   25       -2.017740     -1.335062   1.000000   1.000000
   26       -1.840292     -1.185741   1.000000   1.000000
   27       -1.676890     -1.123235   1.000000   1.000000
   28       -1.594600     -0.904251   1.000000   1.000000
   29       -1.252955     -0.782882   1.000000   1.000000
   30       -1.073398     -0.713754   1.000000   1.000000
   31       -0.944549     -0.472790   1.000000   1.000000
   32       -0.640627     -0.175185   1.000000   1.000000
   33       -0.603813      0.296376   1.000000   1.000000
   34       -0.219121      0.426135   1.000000   1.000000
   35       -0.161839      0.529599   1.000000   1.000000
   36        0.163538      0.594430   1.000000   1.000000
   37        0.335558      0.989876   1.000000   1.000000
   38        0.346320      1.009769   1.000000   1.000000
   39        0.659604      1.211899   1.000000   1.000000
   40        0.712928      1.597417   1.000000   1.000000
   41        0.797716      1.672137   1.000000   1.000000
   42        1.208704      1.893337   1.000000   1.000000
   43        1.262643      2.183919   1.000000   1.000000
   44        1.373742      2.202320   1.000000   1.000000
   45        1.892615      4.842255   1.000000   0.000000
   46        2.035754      4.932337   1.000000   0.000000
   47        2.103525      5.098173   1.000000   0.000000
   48        2.203456      5.207147   1.000000   0.000000
   49        2.363804      5.263675   1.000000   0.000000
   50        2.417977      5.420991   1.000000   0.000000
   51        2.627946      5.539675   1.000000   0.000000
   52        2.719782      5.567020   1.000000   0.000000
   53        3.571035      5.929921   1.000000   0.000000
   54        3.587002      6.001292   1.000000   0.000000
   55        3.602149      6.186100   1.000000   0.000000
   56        3.798492      6.207061   1.000000   0.000000
   57        4.936749      6.572435   0.000000   0.000000
   58        5.129252      6.671021   0.000000   0.000000
   59        5.265138      6.853043   0.000000   0.000000
   60        5.373605      6.987701   0.000000   0.000000
   61        6.046547      7.503430   0.000000   0.000000
   62        6.266844      7.611339   0.000000   0.000000
   63        6.713846      7.971156   0.000000   0.000000
   64        6.757986      8.016370   0.000000   0.000000
   65       14.739978     15.013889   0.000000   0.000000
   66       15.543394     15.838702   0.000000   0.000000
   67       15.730600     16.014315   0.000000   0.000000
   68       17.058516     17.347503   0.000000   0.000000
   69       17.636218     18.072898   0.000000   0.000000
   70       17.676731     18.093444   0.000000   0.000000
   71       17.992757     18.393365   0.000000   0.000000
   72       18.385375     18.821401   0.000000   0.000000
 
  0.5000000E+00 -0.2130798E-22 -0.5293956E-22  0.3571429E-02
    1      -46.676644    -43.658479   1.000000   1.000000
    2      -46.676467    -43.658305   1.000000   1.000000
    3      -46.674124    -43.655269   1.000000   1.000000
    4      -46.673941    -43.655089   1.000000   1.000000
    5      -46.533925    -43.481541   1.000000   1.000000
    6      -46.533737    -43.481355   1.000000   1.000000
    7      -46.531691    -43.478403   1.000000   1.000000
    8      -46.531511    -43.478224   1.000000   1.000000
    9      -46.488213    -43.361577   1.000000   1.000000
   10      -46.488010    -43.361418   1.000000   1.000000
   11      -46.487879    -43.361375   1.000000   1.000000
   12      -46.487693    -43.361245   1.000000   1.000000
   13      -14.153144    -14.047938   1.000000   1.000000
   14      -14.153123    -14.047903   1.000000   1.000000
   15      -14.084350    -13.996806   1.000000   1.000000
   16      -14.084305    -13.996758   1.000000   1.000000
   17      -13.848418    -13.616461   1.000000   1.000000
   18      -13.848346    -13.616388   1.000000   1.000000
   19      -13.786014    -13.570573   1.000000   1.000000
   20      -13.785967    -13.570515   1.000000   1.000000
   21       -2.739653     -2.108987   1.000000   1.000000
   22       -2.739645     -2.108985   1.000000   1.000000
   23       -2.083881     -1.462385   1.000000   1.000000
   24       -2.083854     -1.462383   1.000000   1.000000
   25       -1.952323     -1.186909   1.000000   1.000000
   26       -1.952276     -1.186887   1.000000   1.000000
   27       -1.508262     -0.868002   1.000000   1.000000
   28       -1.508236     -0.867986   1.000000   1.000000
   29       -1.095328     -0.681707   1.000000   1.000000
   30       -1.095302     -0.681692   1.000000   1.000000
   31       -0.795658     -0.480969   1.000000   1.000000
   32       -0.795643     -0.480958   1.000000   1.000000
   33       -0.200229      0.355890   1.000000   1.000000
   34       -0.200170      0.355956   1.000000   1.000000
   35       -0.007288      0.787589   1.000000   1.000000
   36       -0.007259      0.787613   1.000000   1.000000
   37        0.285751      0.968013   1.000000   1.000000
   38        0.285834      0.968021   1.000000   1.000000
   39        0.688912      1.305962   1.000000   1.000000
   40        0.688943      1.305973   1.000000   1.000000
   41        1.066937      1.845315   1.000000   1.000000
   42        1.066939      1.845375   1.000000   1.000000
   43        1.322434      1.888178   1.000000   1.000000
   44        1.322467      1.888237   1.000000   1.000000
   45        1.939349      4.969207   1.000000   0.000000
   46        1.939389      4.969251   1.000000   0.000000
   47        1.995610      5.001408   1.000000   0.000000
   48        1.995756      5.001469   1.000000   0.000000
   49        2.086814      5.377915   1.000000   0.000000
   50        2.086967      5.378065   1.000000   0.000000
   51        2.533414      5.436088   1.000000   0.000000
   52        2.533479      5.436233   1.000000   0.000000
   53        3.600132      6.075879   1.000000   0.000000
   54        3.600179      6.075908   1.000000   0.000000
   55        3.712045      6.117747   1.000000   0.000000
   56        3.712077      6.117836   1.000000   0.000000
   57        5.025046      6.629729   0.000000   0.000000
   58        5.025086      6.629748   0.000000   0.000000
   59        5.302653      6.918878   0.000000   0.000000
   60        5.302676      6.918900   0.000000   0.000000
   61        6.169596      7.578741   0.000000   0.000000
   62        6.169621      7.578741   0.000000   0.000000
   63        6.812055      8.070298   0.000000   0.000000
   64        6.812088      8.070340   0.000000   0.000000
   65       15.925747     16.213383   0.000000   0.000000
   66       15.925875     16.213511   0.000000   0.000000
   67       15.954417     16.215811   0.000000   0.000000
   68       15.954434     16.215829   0.000000   0.000000
   69       17.295589     17.707559   0.000000   0.000000
   70       17.295740     17.707694   0.000000   0.000000
   71       18.479858     18.894937   0.000000   0.000000
   72       18.479913     18.894984   0.000000   0.000000
 
  0.0000000E+00  0.1428571E+00  0.3388132E-20  0.7142857E-02
    1      -46.586912    -43.546281   1.000000   1.000000
    2      -46.578295    -43.541623   1.000000   1.000000
    3      -46.578141    -43.538101   1.000000   1.000000
    4      -46.575324    -43.535040   1.000000   1.000000
    5      -46.562779    -43.523837   1.000000   1.000000
    6      -46.559962    -43.520304   1.000000   1.000000
    7      -46.525759    -43.464935   1.000000   1.000000
    8      -46.524214    -43.453605   1.000000   1.000000
    9      -46.500764    -43.389091   1.000000   1.000000
   10      -46.495162    -43.376164   1.000000   1.000000
   11      -46.492898    -43.375320   1.000000   1.000000
   12      -46.489057    -43.362256   1.000000   1.000000
   13      -15.612783    -15.459418   1.000000   1.000000
   14      -15.065259    -14.959770   1.000000   1.000000
   15      -14.739634    -14.522006   1.000000   1.000000
   16      -14.038283    -13.881889   1.000000   1.000000
   17      -13.743770    -13.576659   1.000000   1.000000
   18      -13.689368    -13.527685   1.000000   1.000000
   19      -13.623144    -13.464131   1.000000   1.000000
   20      -13.592348    -13.435928   1.000000   1.000000
   21       -3.301134     -2.680704   1.000000   1.000000
   22       -2.610510     -1.934608   1.000000   1.000000
   23       -2.586896     -1.792987   1.000000   1.000000
   24       -2.453239     -1.624217   1.000000   1.000000
   25       -2.013806     -1.258042   1.000000   1.000000
   26       -1.710124     -1.057365   1.000000   1.000000
   27       -1.626584     -0.909998   1.000000   1.000000
   28       -1.618738     -0.887641   1.000000   1.000000
   29       -1.378755     -0.594067   1.000000   1.000000
   30       -1.255887     -0.519872   1.000000   1.000000
   31       -1.251960     -0.354007   1.000000   1.000000
   32       -0.557695      0.023763   1.000000   1.000000
   33       -0.456671      0.235810   1.000000   1.000000
   34        0.250892      0.990403   1.000000   1.000000
   35        0.529393      1.068438   1.000000   1.000000
   36        0.589966      1.141050   1.000000   1.000000
   37        0.625256      1.237219   1.000000   1.000000
   38        0.825768      1.668756   1.000000   1.000000
   39        1.087835      1.780983   1.000000   1.000000
   40        1.302252      2.453554   1.000000   1.000000
   41        1.428826      2.507170   1.000000   1.000000
   42        1.590889      2.617722   1.000000   1.000000
   43        1.722507      2.925786   1.000000   1.000000
   44        2.014001      3.114910   1.000000   1.000000
   45        2.262824      4.624475   1.000000   0.000000
   46        2.350715      4.745256   1.000000   0.000000
   47        2.364272      4.747919   1.000000   0.000000
   48        2.399877      5.048012   1.000000   0.000000
   49        2.676836      5.075882   1.000000   0.000000
   50        2.678646      5.090047   1.000000   0.000000
   51        2.771782      5.370231   1.000000   0.000000
   52        2.919147      5.409504   1.000000   0.000000
   53        3.064665      5.446553   1.000000   0.000000
   54        3.421152      5.812202   1.000000   0.000000
   55        3.562462      6.307729   1.000000   0.000000
   56        3.883475      6.361905   1.000000   0.000000
   57        4.944941      6.536001   0.000000   0.000000
   58        5.457981      6.954851   0.000000   0.000000
   59        6.373126      7.571312   0.000000   0.000000
   60        6.375157      7.706405   0.000000   0.000000
   61        6.505741      7.900319   0.000000   0.000000
   62        6.613024      7.924661   0.000000   0.000000
   63        6.652518      7.931343   0.000000   0.000000
   64        6.978592      8.366260   0.000000   0.000000
   65       11.339601     11.756221   0.000000   0.000000
   66       13.243690     13.607856   0.000000   0.000000
   67       13.853494     14.198833   0.000000   0.000000
   68       14.660442     15.161506   0.000000   0.000000
   69       15.136238     15.582080   0.000000   0.000000
   70       16.189225     16.684361   0.000000   0.000000
   71       16.259193     16.846873   0.000000   0.000000
   72       17.579403     18.037502   0.000000   0.000000
 
  0.1000000E+00  0.1428571E+00  0.5082198E-20  0.7142857E-02
    1      -46.587939    -43.553196   1.000000   1.000000