   12   12  199    2
  0.1050332E+02  0.2916331E-09  0.4580966E-09  0.9434393E-09  0.5000000E-15
  1.000000000000000E-004
  CAR 
 unknown system                          
    100    142     72
