       N       E                     dE             d eps       ncg     rms          rms(c)
DAV:   1    -0.651301717099E+02   -0.65130E+02   -0.11048E+03 54464   0.326E+02    0.284E+01
RMM:   2    -0.103509518499E+03   -0.38379E+02   -0.37811E+02 41371   0.757E+01    0.305E+01
RMM:   3    -0.931392493142E+02    0.10370E+02   -0.14485E+01 47884   0.183E+01    0.162E+01
RMM:   4    -0.934075603443E+02   -0.26831E+00   -0.34364E+00 43035   0.771E+00    0.111E+01
RMM:   5    -0.928919068462E+02    0.51565E+00   -0.89610E-01 47385   0.386E+00    0.251E+00
RMM:   6    -0.928813056270E+02    0.10601E-01   -0.41013E-02 45085   0.104E+00    0.105E+00
RMM:   7    -0.928750065074E+02    0.62991E-02   -0.94473E-03 46921   0.405E-01    0.577E-01
RMM:   8    -0.928737608152E+02    0.12457E-02   -0.33719E-03 45789   0.224E-01    0.292E-01
RMM:   9    -0.928737844237E+02   -0.23609E-04   -0.91168E-04 43541   0.109E-01    0.160E-01
RMM:  10    -0.928736830973E+02    0.10133E-03   -0.35162E-04 45748   0.764E-02    0.538E-02
RMM:  11    -0.928736723364E+02    0.10761E-04   -0.25802E-05 44374   0.219E-02    0.391E-02
RMM:  12    -0.928736653242E+02    0.70123E-05   -0.93987E-06 41015   0.134E-02    0.134E-02
RMM:  13    -0.928736643285E+02    0.99570E-06   -0.22243E-06 29163   0.644E-03
   1 F= -.92873664E+02 E0= -.92873664E+02  d E =-.928737E+02  mag=    12.0000
       N       E                     dE             d eps       ncg     rms          rms(c)
DAV:   1    -0.926039116118E+02    0.26975E+00   -0.67927E+02 46816   0.252E+02    0.363E+01
RMM:   2    -0.125664858084E+03   -0.33061E+02   -0.16384E+02 47289   0.573E+01    0.432E+01
RMM:   3    -0.958234526029E+02    0.29841E+02   -0.32247E+01 47059   0.237E+01    0.166E+01
RMM:   4    -0.932156612424E+02    0.26078E+01   -0.58588E+00 43820   0.827E+00    0.802E+00
RMM:   5    -0.929538633527E+02    0.26180E+00   -0.10018E+00 44249   0.360E+00    0.447E+00
RMM:   6    -0.928716837928E+02    0.82180E-01   -0.24343E-01 43482   0.203E+00    0.180E+00
RMM:   7    -0.928551486182E+02    0.16535E-01   -0.60850E-02 43850   0.975E-01    0.851E-01
RMM:   8    -0.928570679953E+02   -0.19194E-02   -0.70506E-03 46731   0.375E-01    0.618E-01
RMM:   9    -0.928549666959E+02    0.21013E-02   -0.33603E-03 44270   0.215E-01    0.310E-01
RMM:  10    -0.928545479882E+02    0.41871E-03   -0.16624E-03 44107   0.153E-01    0.151E-01
RMM:  11    -0.928544388985E+02    0.10909E-03   -0.16460E-04 44172   0.551E-02    0.620E-02
RMM:  12    -0.928544563265E+02   -0.17428E-04   -0.62040E-05 43385   0.321E-02    0.481E-02
RMM:  13    -0.928544463868E+02    0.99397E-05   -0.22209E-05 45311   0.194E-02    0.171E-02
RMM:  14    -0.928544452905E+02    0.10963E-05   -0.21530E-06 30697   0.716E-03    0.744E-03
RMM:  15    -0.928544454417E+02   -0.15123E-06   -0.76327E-07 25647   0.427E-03
   2 F= -.92854445E+02 E0= -.92854445E+02  d E =0.192189E-01  mag=    12.0000
       N       E                     dE             d eps       ncg     rms          rms(c)
DAV:   1    -0.936645835550E+02   -0.81014E+00   -0.18260E+02 47752   0.130E+02    0.164E+01
RMM:   2    -0.953445454682E+02   -0.16800E+01   -0.27250E+01 49287   0.264E+01    0.161E+01
RMM:   3    -0.941702872420E+02    0.11743E+01   -0.59734E+00 45187   0.997E+00    0.832E+00
RMM:   4    -0.936006266670E+02    0.56966E+00   -0.80096E-01 41878   0.395E+00    0.285E+00
RMM:   5    -0.935484005536E+02    0.52226E-01   -0.12470E-01 41983   0.152E+00    0.111E+00
RMM:   6    -0.935419514858E+02    0.64491E-02   -0.11136E-02 48135   0.448E-01    0.545E-01
RMM:   7    -0.935414819574E+02    0.46953E-03   -0.48729E-03 42729   0.255E-01    0.186E-01
RMM:   8    -0.935413087131E+02    0.17324E-03   -0.59235E-04 45793   0.102E-01    0.748E-02
RMM:   9    -0.935412860649E+02    0.22648E-04   -0.70539E-05 45500   0.343E-02    0.429E-02
RMM:  10    -0.935412878597E+02   -0.17949E-05   -0.36918E-05 44140   0.234E-02    0.360E-02
RMM:  11    -0.935412823752E+02    0.54846E-05   -0.10857E-05 43899   0.136E-02    0.104E-02
RMM:  12    -0.935412816671E+02    0.70807E-06   -0.74017E-07 26618   0.426E-03
   3 F= -.93541282E+02 E0= -.93541282E+02  d E =-.667617E+00  mag=    12.0000
       N       E                     dE             d eps       ncg     rms          rms(c)
DAV:   1    -0.929380468572E+02    0.60324E+00   -0.11072E+02 47960   0.106E+02    0.987E+00
RMM:   2    -0.942991555876E+02   -0.13611E+01   -0.19107E+01 50049   0.220E+01    0.662E+00
RMM:   3    -0.942176014615E+02    0.81554E-01   -0.18931E+00 45657   0.579E+00    0.519E+00
RMM:   4    -0.940109944111E+02    0.20661E+00   -0.27411E-01 43146   0.233E+00    0.196E+00
RMM:   5    -0.939795275182E+02    0.31467E-01   -0.48274E-02 43972   0.987E-01    0.963E-01
RMM:   6    -0.939738372353E+02    0.56903E-02   -0.13532E-02 45149   0.454E-01    0.387E-01
RMM:   7    -0.939734310907E+02    0.40614E-03   -0.22450E-03 45987   0.194E-01    0.189E-01
RMM:   8    -0.939734193384E+02    0.11752E-04   -0.40816E-04 45608   0.775E-02    0.934E-02
RMM:   9    -0.939734217149E+02   -0.23765E-05   -0.12668E-04 44975   0.441E-02    0.763E-02
RMM:  10    -0.939734032378E+02    0.18477E-04   -0.51446E-05 45397   0.285E-02    0.317E-02
RMM:  11    -0.939733979448E+02    0.52930E-05   -0.72651E-06 41236   0.111E-02    0.986E-03
RMM:  12    -0.939733976178E+02    0.32697E-06   -0.70539E-07 26491   0.447E-03
   4 F= -.93973398E+02 E0= -.93973398E+02  d E =-.432116E+00  mag=    12.0000
       N       E                     dE             d eps       ncg     rms          rms(c)
DAV:   1    -0.931467112932E+02    0.82669E+00   -0.10930E+02 48792   0.105E+02    0.993E+00
RMM:   2    -0.944370018223E+02   -0.12903E+01   -0.18780E+01 50051   0.219E+01    0.631E+00
RMM:   3    -0.943724128258E+02    0.64589E-01   -0.18085E+00 45608   0.565E+00    0.510E+00
RMM:   4    -0.941718178565E+02    0.20059E+00   -0.27950E-01 43054   0.235E+00    0.197E+00
RMM:   5    -0.941406629117E+02    0.31155E-01   -0.45940E-02 44516   0.961E-01    0.958E-01
RMM:   6    -0.941352673510E+02    0.53956E-02   -0.12905E-02 45363   0.443E-01    0.393E-01
RMM:   7    -0.941349075996E+02    0.35975E-03   -0.22386E-03 45605   0.192E-01    0.192E-01
RMM:   8    -0.941348949285E+02    0.12671E-04   -0.41090E-04 45842   0.773E-02    0.906E-02
RMM:   9    -0.941348830603E+02    0.11868E-04   -0.11042E-04 45349   0.385E-02    0.462E-02
RMM:  10    -0.941348767765E+02    0.62837E-05   -0.24681E-05 44716   0.202E-02    0.299E-02
RMM:  11    -0.941348730917E+02    0.36848E-05   -0.58906E-06 39029   0.104E-02    0.106E-02
RMM:  12    -0.941348726945E+02    0.39725E-06   -0.70630E-07 26636   0.435E-03
   5 F= -.94134873E+02 E0= -.94134873E+02  d E =-.593591E+00  mag=    12.0000
       N       E                     dE             d eps       ncg     rms          rms(c)
DAV:   1    -0.923992351813E+02    0.17356E+01   -0.13727E+02 55280   0.142E+02    0.797E+00
RMM:   2    -0.947642647773E+02   -0.23650E+01   -0.23845E+01 49327   0.219E+01    0.650E+00
RMM:   3    -0.946318396875E+02    0.13243E+00   -0.13209E+00 44696   0.496E+00    0.330E+00
RMM:   4    -0.945694627925E+02    0.62377E-01   -0.11598E-01 46647   0.159E+00    0.150E+00
RMM:   5    -0.945574664530E+02    0.11996E-01   -0.18648E-02 43682   0.572E-01    0.102E+00
RMM:   6    -0.945540435831E+02    0.34229E-02   -0.14657E-02 41137   0.502E-01    0.262E-01
RMM:   7    -0.945540295214E+02    0.14062E-04   -0.13436E-03 48196   0.161E-01    0.126E-01
RMM:   8    -0.945540098407E+02    0.19681E-04   -0.19216E-04 44351   0.544E-02    0.501E-02
RMM:   9    -0.945540057459E+02    0.40948E-05   -0.26769E-05 45703   0.238E-02    0.231E-02
RMM:  10    -0.945540053024E+02    0.44343E-06   -0.82177E-06 39834   0.116E-02
   6 F= -.94554005E+02 E0= -.94554005E+02  d E =-.419133E+00  mag=    12.0000
       N       E                     dE             d eps       ncg     rms          rms(c)
DAV:   1    -0.826320361636E+02    0.11922E+02   -0.70799E+02 54736   0.314E+02    0.230E+01
RMM:   2    -0.970692030396E+02   -0.14437E+02   -0.14730E+02 48066   0.533E+01    0.205E+01
RMM:   3    -0.952243674034E+02    0.18448E+01   -0.10579E+01 46106   0.147E+01    0.838E+00
RMM:   4    -0.949291149839E+02    0.29525E+00   -0.87922E-01 46935   0.416E+00    0.441E+00
RMM:   5    -0.948778242889E+02    0.51291E-01   -0.79961E-02 46944   0.119E+00    0.344E+00
RMM:   6    -0.948559330522E+02    0.21891E-01   -0.10322E-01 41381   0.127E+00    0.763E-01
RMM:   7    -0.948547343545E+02    0.11987E-02   -0.78865E-03 47723   0.402E-01    0.271E-01
RMM:   8    -0.948546367436E+02    0.97611E-04   -0.74570E-04 44859   0.114E-01    0.126E-01
RMM:   9    -0.948546248312E+02    0.11912E-04   -0.34485E-04 41464   0.823E-02    0.485E-02
RMM:  10    -0.948546174619E+02    0.73693E-05   -0.34593E-05 48182   0.273E-02    0.287E-02
RMM:  11    -0.948546158130E+02    0.16489E-05   -0.93993E-06 39589   0.123E-02    0.190E-02
RMM:  12    -0.948546151066E+02    0.70641E-06   -0.27615E-06 31393   0.756E-03
   7 F= -.94854615E+02 E0= -.94854615E+02  d E =-.719742E+00  mag=    12.0000
       N       E                     dE             d eps       ncg     rms          rms(c)
DAV:   1    -0.924835721917E+02    0.23710E+01   -0.12942E+02 55032   0.138E+02    0.804E+00
RMM:   2    -0.949713561520E+02   -0.24878E+01   -0.24720E+01 49823   0.234E+01    0.540E+00
RMM:   3    -0.949725066752E+02   -0.11505E-02   -0.96837E-01 43987   0.410E+00    0.295E+00
RMM:   4    -0.949317921100E+02    0.40715E-01   -0.12582E-01 46689   0.161E+00    0.189E+00
RMM:   5    -0.949136952680E+02    0.18097E-01   -0.28803E-02 47210   0.673E-01    0.133E+00
RMM:   6    -0.949069605313E+02    0.67347E-02   -0.22811E-02 41249   0.616E-01    0.361E-01
RMM:   7    -0.949067156417E+02    0.24489E-03   -0.19842E-03 49131   0.203E-01    0.146E-01
RMM:   8    -0.949067044158E+02    0.11226E-04   -0.19327E-04 44452   0.576E-02    0.689E-02
RMM:   9    -0.949067171953E+02   -0.12780E-04   -0.52144E-05 45099   0.336E-02    0.221E-02
RMM:  10    -0.949067173366E+02   -0.14126E-06   -0.93086E-06 42527   0.131E-02
   8 F= -.94906717E+02 E0= -.94906717E+02  d E =-.771845E+00  mag=    12.0000
       N       E                     dE             d eps       ncg     rms          rms(c)
DAV:   1    -0.947177252337E+02    0.18899E+00   -0.12754E+01 57288   0.436E+01    0.234E+00
RMM:   2    -0.949484957265E+02   -0.23077E+00   -0.23014E+00 50475   0.692E+00    0.160E+00
RMM:   3    -0.949387625371E+02    0.97332E-02   -0.95819E-02 43945   0.134E+00    0.101E+00
RMM:   4    -0.949326264241E+02    0.61361E-02   -0.92110E-03 45800   0.465E-01    0.436E-01
RMM:   5    -0.949311703279E+02    0.14561E-02   -0.22827E-03 42705   0.212E-01    0.257E-01
RMM:   6    -0.949308588576E+02    0.31147E-03   -0.13769E-03 41425   0.154E-01    0.653E-02
RMM:   7    -0.949308516655E+02    0.71921E-05   -0.92363E-05 48330   0.471E-02    0.331E-02
RMM:   8    -0.949308533553E+02   -0.16898E-05   -0.17384E-05 41764   0.168E-02    0.200E-02
RMM:   9    -0.949308520601E+02    0.12953E-05   -0.36661E-06 33861   0.898E-03    0.106E-02
RMM:  10    -0.949308515382E+02    0.52186E-06   -0.11989E-06 26700   0.540E-03
   9 F= -.94930852E+02 E0= -.94930852E+02  d E =-.795979E+00  mag=    12.0000
       N       E                     dE             d eps       ncg     rms          rms(c)
DAV:   1    -0.945154674336E+02    0.41538E+00   -0.33782E+01 50808   0.670E+01    0.372E+00
RMM:   2    -0.951336041548E+02   -0.61814E+00   -0.61645E+00 50165   0.115E+01    0.239E+00
RMM:   3    -0.951373747556E+02   -0.37706E-02   -0.31000E-01 44591   0.217E+00    0.150E+00
RMM:   4    -0.951237758905E+02    0.13599E-01   -0.19008E-02 48346   0.631E-01    0.936E-01
RMM:   5    -0.951166737388E+02    0.71022E-02   -0.70174E-03 42594   0.340E-01    0.499E-01
RMM:   6    -0.951156187820E+02    0.10550E-02   -0.44791E-03 41237   0.286E-01    0.110E-01
RMM:   7    -0.951155616028E+02    0.57179E-04   -0.24946E-04 51217   0.766E-02    0.712E-02
RMM:   8    -0.951155550161E+02    0.65867E-05   -0.48321E-05 42795   0.295E-02    0.326E-02
RMM:   9    -0.951155556783E+02   -0.66220E-06   -0.85384E-06 44009   0.130E-02
  10 F= -.95115556E+02 E0= -.95115556E+02  d E =-.184704E+00  mag=    12.0000
       N       E                     dE             d eps       ncg     rms          rms(c)
DAV:   1    -0.939424624212E+02    0.11731E+01   -0.72048E+01 50784   0.979E+01    0.574E+00
RMM:   2    -0.952634247296E+02   -0.13210E+01   -0.13150E+01 50318   0.169E+01    0.368E+00
RMM:   3    -0.952680394713E+02   -0.46147E-02   -0.68068E-01 44814   0.330E+00    0.227E+00
RMM:   4    -0.952385237818E+02    0.29516E-01   -0.49223E-02 48905   0.978E-01    0.137E+00
RMM:   5    -0.952240442238E+02    0.14480E-01   -0.13947E-02 42759   0.480E-01    0.773E-01
RMM:   6    -0.952213438979E+02    0.27003E-02   -0.98482E-03 41207   0.421E-01    0.170E-01
RMM:   7    -0.952212287074E+02    0.11519E-03   -0.60009E-04 51793   0.118E-01    0.103E-01
RMM:   8    -0.952212151255E+02    0.13582E-04   -0.77196E-05 43536   0.382E-02    0.483E-02
RMM:   9    -0.952212188295E+02   -0.37040E-05   -0.20609E-05 43531   0.200E-02    0.173E-02
RMM:  10    -0.952212182539E+02    0.57557E-06   -0.22847E-06 29450   0.721E-03
  11 F= -.95221218E+02 E0= -.95221218E+02  d E =-.290367E+00  mag=    12.0000
       N       E                     dE             d eps       ncg     rms          rms(c)
DAV:   1    -0.951462857353E+02    0.74933E-01   -0.64815E+00 59224   0.436E+01    0.292E+00
RMM:   2    -0.953927013125E+02   -0.24642E+00   -0.25536E+00 50548   0.735E+00    0.160E+00
RMM:   3    -0.953983303511E+02   -0.56290E-02   -0.15930E-01 45048   0.156E+00    0.127E+00
RMM:   4    -0.953891283479E+02    0.92020E-02   -0.14206E-02 45843   0.549E-01    0.628E-01
RMM:   5    -0.953868795354E+02    0.22488E-02   -0.33623E-03 45017   0.256E-01    0.339E-01
RMM:   6    -0.953864855260E+02    0.39401E-03   -0.15073E-03 42038   0.175E-01    0.979E-02
RMM:   7    -0.953864564244E+02    0.29102E-04   -0.15940E-04 47879   0.587E-02    0.401E-02
RMM:   8    -0.953864544170E+02    0.20074E-05   -0.25121E-05 42747   0.193E-02    0.184E-02
RMM:   9    -0.953864542343E+02    0.18268E-06   -0.50168E-06 40239   0.101E-02
  12 F= -.95386454E+02 E0= -.95386454E+02  d E =-.165236E+00  mag=    12.0000
       N       E                     dE             d eps       ncg     rms          rms(c)
DAV:   1    -0.947022562181E+02    0.68420E+00   -0.21397E+01 57768   0.790E+01    0.527E+00
RMM:   2    -0.955224409539E+02   -0.82018E+00   -0.84779E+00 50506   0.135E+01    0.306E+00
RMM:   3    -0.955373387485E+02   -0.14898E-01   -0.48878E-01 45398   0.276E+00    0.221E+00
RMM:   4    -0.955090070866E+02    0.28332E-01   -0.44471E-02 45899   0.971E-01    0.115E+00
RMM:   5    -0.955009770549E+02    0.80300E-02   -0.11846E-02 45772   0.461E-01    0.664E-01
RMM:   6    -0.954992533884E+02    0.17237E-02   -0.60060E-03 41845   0.344E-01    0.191E-01
RMM:   7    -0.954991378001E+02    0.11559E-03   -0.64799E-04 48179   0.118E-01    0.739E-02
RMM:   8    -0.954991273408E+02    0.10459E-04   -0.81048E-05 43662   0.353E-02    0.345E-02
RMM:   9    -0.954991274194E+02   -0.78640E-07   -0.18551E-05 45347   0.190E-02    0.168E-02
RMM:  10    -0.954991282395E+02   -0.82004E-06   -0.32318E-06 30397   0.860E-03
  13 F= -.95499128E+02 E0= -.95499128E+02  d E =-.277910E+00  mag=    12.0000
       N       E                     dE             d eps       ncg     rms          rms(c)
DAV:   1    -0.955122188068E+02   -0.13091E-01   -0.14190E+00 57224   0.130E+01    0.112E+00
RMM:   2    -0.955316363221E+02   -0.19418E-01   -0.24203E-01 49424   0.258E+00    0.803E-01
RMM:   3    -0.955295633612E+02    0.20730E-02   -0.23545E-02 45045   0.645E-01    0.570E-01
RMM:   4    -0.955271346446E+02    0.24287E-02   -0.29001E-03 42905   0.246E-01    0.246E-01
RMM:   5    -0.955267129879E+02    0.42166E-03   -0.65503E-04 44795   0.106E-01    0.921E-02
RMM:   6    -0.955266611332E+02    0.51855E-04   -0.14432E-04 45007   0.465E-02    0.488E-02
RMM:   7    -0.955266583270E+02    0.28062E-05   -0.35119E-05 45691   0.224E-02    0.274E-02
RMM:   8    -0.955266574866E+02    0.84039E-06   -0.63034E-06 39599   0.978E-03
  14 F= -.95526657E+02 E0= -.95526657E+02  d E =-.275292E-01  mag=    12.0000
       N       E                     dE             d eps       ncg     rms          rms(c)
DAV:   1    -0.954353789933E+02    0.91279E-01   -0.12783E+01 54688   0.388E+01    0.339E+00
RMM:   2    -0.956059593251E+02   -0.17058E+00   -0.21788E+00 49420   0.772E+00    0.236E+00
RMM:   3    -0.955908907903E+02    0.15069E-01   -0.20652E-01 45116   0.193E+00    0.169E+00
RMM:   4    -0.955694384783E+02    0.21452E-01   -0.27011E-02 42782   0.742E-01    0.732E-01
RMM:   5    -0.955657799054E+02    0.36586E-02   -0.55693E-03 45391   0.309E-01    0.277E-01
RMM:   6    -0.955653360204E+02    0.44389E-03   -0.12507E-03 45160   0.138E-01    0.145E-01
RMM:   7    -0.955653127385E+02    0.23282E-04   -0.30530E-04 45741   0.662E-02    0.793E-02
RMM:   8    -0.955653072390E+02    0.54995E-05   -0.51556E-05 45640   0.282E-02    0.323E-02
RMM:   9    -0.955653053891E+02    0.18498E-05   -0.12993E-05 40548   0.134E-02    0.127E-02
RMM:  10    -0.955653052008E+02    0.18829E-06   -0.14280E-06 27061   0.615E-03
  15 F= -.95565305E+02 E0= -.95565305E+02  d E =-.661770E-01  mag=    12.0000
       N       E                     dE             d eps       ncg     rms          rms(c)
DAV:   1    -0.955959489126E+02   -0.30644E-01   -0.15665E+00 47816   0.102E+01    0.174E+00
RMM:   2    -0.956026392862E+02   -0.66904E-02   -0.23117E-01 48958   0.264E+00    0.184E+00
RMM:   3    -0.955824180925E+02    0.20221E-01   -0.53417E-02 45892   0.940E-01    0.564E-01
RMM:   4    -0.955789747398E+02    0.34434E-02   -0.71577E-03 42364   0.346E-01    0.218E-01
RMM:   5    -0.955785614064E+02    0.41333E-03   -0.67676E-04 46348   0.121E-01    0.102E-01
RMM:   6    -0.955784978657E+02    0.63541E-04   -0.19835E-04 42196   0.581E-02    0.480E-02
RMM:   7    -0.955784948019E+02    0.30638E-05   -0.40871E-05 46145   0.258E-02    0.274E-02
RMM:   8    -0.955784943920E+02    0.40992E-06   -0.60753E-06 39851   0.990E-03
  16 F= -.95578494E+02 E0= -.95578494E+02  d E =-.131892E-01  mag=    12.0000
       N       E                     dE             d eps       ncg     rms          rms(c)
DAV:   1    -0.956128087562E+02   -0.34314E-01   -0.25262E+00 46152   0.130E+01    0.220E+00
RMM:   2    -0.956249526654E+02   -0.12144E-01   -0.37545E-01 48965   0.336E+00    0.238E+00
RMM:   3    -0.955908899974E+02    0.34063E-01   -0.86897E-02 45917   0.120E+00    0.704E-01
RMM:   4    -0.955854662091E+02    0.54238E-02   -0.11512E-02 42543   0.437E-01    0.278E-01
RMM:   5    -0.955848010529E+02    0.66516E-03   -0.10919E-03 46194   0.154E-01    0.129E-01
RMM:   6    -0.955846983181E+02    0.10273E-03   -0.31977E-04 42221   0.737E-02    0.608E-02
RMM:   7    -0.955846931425E+02    0.51756E-05   -0.66978E-05 46172   0.329E-02    0.346E-02
RMM:   8    -0.955846922731E+02    0.86937E-06   -0.10318E-05 43439   0.126E-02    0.197E-02
RMM:   9    -0.955846930702E+02   -0.79704E-06   -0.47373E-06 38797   0.824E-03
  17 F= -.95584693E+02 E0= -.95584693E+02  d E =-.193879E-01  mag=    12.0000
       N       E                     dE             d eps       ncg     rms          rms(c)
DAV:   1    -0.955688347122E+02    0.15858E-01   -0.18999E+00 49784   0.140E+01    0.856E-01
RMM:   2    -0.955952858534E+02   -0.26451E-01   -0.29043E-01 49888   0.264E+00    0.558E-01
RMM:   3    -0.955953678054E+02   -0.81952E-04   -0.14570E-02 44357   0.490E-01    0.349E-01
RMM:   4    -0.955944892152E+02    0.87859E-03   -0.17622E-03 47141   0.181E-01    0.220E-01
RMM:   5    -0.955941197352E+02    0.36948E-03   -0.55804E-04 43486   0.898E-02    0.104E-01
RMM:   6    -0.955940934610E+02    0.26274E-04   -0.16337E-04 43941   0.507E-02    0.378E-02
RMM:   7    -0.955940919134E+02    0.15477E-05   -0.16777E-05 48935   0.169E-02    0.265E-02
RMM:   8    -0.955940928044E+02   -0.89100E-06   -0.37596E-06 32009   0.815E-03
  18 F= -.95594093E+02 E0= -.95594093E+02  d E =-.939973E-02  mag=    12.0000
       N       E                     dE             d eps       ncg     rms          rms(c)
DAV:   1    -0.954430820621E+02    0.15101E+00   -0.12290E+01 49352   0.356E+01    0.219E+00
RMM:   2    -0.956154360557E+02   -0.17235E+00   -0.18892E+00 49954   0.673E+00    0.142E+00
RMM:   3    -0.956158143005E+02   -0.37824E-03   -0.91447E-02 44361   0.122E+00    0.873E-01
RMM:   4    -0.956103557608E+02    0.54585E-02   -0.11244E-02 46962   0.457E-01    0.570E-01
RMM:   5    -0.956079352922E+02    0.24205E-02   -0.37202E-03 43704   0.232E-01    0.268E-01
RMM:   6    -0.956077440451E+02    0.19125E-03   -0.10688E-03 43990   0.130E-01    0.986E-02
RMM:   7    -0.956077340744E+02    0.99706E-05   -0.11428E-04 50529   0.437E-02    0.669E-02
RMM:   8    -0.956077392191E+02   -0.51447E-05   -0.27009E-05 41673   0.202E-02    0.279E-02
RMM:   9    -0.956077375749E+02    0.16442E-05   -0.46793E-06 40756   0.935E-03    0.104E-02
RMM:  10    -0.956077373418E+02    0.23306E-06   -0.88750E-07 26650   0.457E-03
  19 F= -.95607737E+02 E0= -.95607737E+02  d E =-.230443E-01  mag=    12.0000
       N       E                     dE             d eps       ncg     rms          rms(c)
DAV:   1    -0.955774744731E+02    0.30263E-01   -0.23845E+00 51680   0.157E+01    0.956E-01
RMM:   2    -0.956106456258E+02   -0.33171E-01   -0.36461E-01 49947   0.295E+00    0.623E-01
RMM:   3    -0.956106968441E+02   -0.51218E-04   -0.17687E-02 44234   0.540E-01    0.385E-01
RMM:   4    -0.956096323562E+02    0.10645E-02   -0.21887E-03 47138   0.201E-01    0.247E-01
RMM:   5    -0.956091738211E+02    0.45854E-03   -0.71346E-04 43477   0.101E-01    0.116E-01
RMM:   6    -0.956091405649E+02    0.33256E-04   -0.20049E-04 44319   0.561E-02    0.423E-02
RMM:   7    -0.956091388460E+02    0.17189E-05   -0.21197E-05 48987   0.190E-02    0.295E-02
RMM:   8    -0.956091398373E+02   -0.99129E-06   -0.51832E-06 35133   0.927E-03
  20 F= -.95609140E+02 E0= -.95609140E+02  d E =-.244468E-01  mag=    12.0000
       N       E                     dE             d eps       ncg     rms          rms(c)
DAV:   1    -0.955879591807E+02    0.21180E-01   -0.25107E+00 48736   0.161E+01    0.123E+00
RMM:   2    -0.956214631125E+02   -0.33504E-01   -0.41200E-01 49439   0.327E+00    0.102E+00
RMM:   3    -0.956189703568E+02    0.24928E-02   -0.33861E-02 45722   0.727E-01    0.577E-01
RMM:   4    -0.956162904889E+02    0.26799E-02   -0.29401E-03 44417   0.231E-01    0.309E-01
RMM:   5    -0.956154484252E+02    0.84206E-03   -0.12465E-03 43889   0.128E-01    0.140E-01
RMM:   6    -0.956153655638E+02    0.82861E-04   -0.31801E-04 42779   0.714E-02    0.532E-02
RMM:   7    -0.956153625438E+02    0.30199E-05   -0.38818E-05 49844   0.252E-02    0.337E-02
RMM:   8    -0.956153647720E+02   -0.22282E-05   -0.71259E-06 39564   0.109E-02    0.146E-02
RMM:   9    -0.956153646845E+02    0.87552E-07   -0.14485E-06 26817   0.558E-03
  21 F= -.95615365E+02 E0= -.95615365E+02  d E =-.622485E-02  mag=    12.0000
       N       E                     dE             d eps       ncg     rms          rms(c)
DAV:   1    -0.955997782766E+02    0.15586E-01   -0.15774E+00 49560   0.127E+01    0.970E-01
RMM:   2    -0.956207427423E+02   -0.20964E-01   -0.25821E-01 49436   0.259E+00    0.806E-01
RMM:   3    -0.956191852807E+02    0.15575E-02   -0.21265E-02 45727   0.576E-01    0.456E-01
RMM:   4    -0.956175138296E+02    0.16715E-02   -0.18352E-03 44393   0.183E-01    0.245E-01
RMM:   5    -0.956169851180E+02    0.52871E-03   -0.78522E-04 43847   0.102E-01    0.111E-01
RMM:   6    -0.956169338693E+02    0.51249E-04   -0.19947E-04 42812   0.566E-02    0.418E-02
RMM:   7    -0.956169321334E+02    0.17360E-05   -0.24039E-05 48798   0.199E-02    0.268E-02
RMM:   8    -0.956169335993E+02   -0.14659E-05   -0.43061E-06 34297   0.903E-03    0.117E-02
RMM:   9    -0.956169336170E+02   -0.17668E-07   -0.10476E-06 26698   0.505E-03
  22 F= -.95616934E+02 E0= -.95616934E+02  d E =-.779378E-02  mag=    12.0000
       N       E                     dE             d eps       ncg     rms          rms(c)
DAV:   1    -0.956377710770E+02   -0.20837E-01   -0.28434E+00 52392   0.194E+01    0.258E+00
RMM:   2    -0.956774895834E+02   -0.39719E-01   -0.68873E-01 50462   0.430E+00    0.269E+00
RMM:   3    -0.956274326469E+02    0.50057E-01   -0.14055E-01 45787   0.145E+00    0.907E-01
RMM:   4    -0.956193338230E+02    0.80988E-02   -0.16100E-02 43416   0.517E-01    0.379E-01
RMM:   5    -0.956183791806E+02    0.95464E-03   -0.21470E-03 43459   0.211E-01    0.148E-01
RMM:   6    -0.956182254801E+02    0.15370E-03   -0.40151E-04 44895   0.914E-02    0.847E-02
RMM:   7    -0.956182189199E+02    0.65601E-05   -0.10147E-04 45009   0.417E-02    0.346E-02
RMM:   8    -0.956182189842E+02   -0.64336E-07   -0.11970E-05 44492   0.139E-02    0.214E-02
RMM:   9    -0.956182207260E+02   -0.17418E-05   -0.69502E-06 40749   0.943E-03    0.822E-03
RMM:  10    -0.956182205114E+02    0.21462E-06   -0.68236E-07 26640   0.403E-03
  23 F= -.95618221E+02 E0= -.95618221E+02  d E =-.128689E-02  mag=    12.0000
       N       E                     dE             d eps       ncg     rms          rms(c)
DAV:   1    -0.956219655934E+02   -0.37449E-02   -0.42278E-01 54008   0.750E+00    0.992E-01
RMM:   2    -0.956269934450E+02   -0.50279E-02   -0.10092E-01 50596   0.165E+00    0.100E+00
RMM:   3    -0.956205022456E+02    0.64912E-02   -0.20086E-02 45667   0.548E-01    0.368E-01
RMM:   4    -0.956192055800E+02    0.12967E-02   -0.24305E-03 42468   0.206E-01    0.142E-01
RMM:   5    -0.956190668456E+02    0.13873E-03   -0.32034E-04 43602   0.813E-02    0.579E-02
RMM:   6    -0.956190425813E+02    0.24264E-04   -0.61442E-05 45264   0.360E-02    0.317E-02
RMM:   7    -0.956190400598E+02    0.25215E-05   -0.14769E-05 43089   0.162E-02    0.118E-02
RMM:   8    -0.956190398862E+02    0.17362E-06   -0.13207E-06 27156   0.541E-03
  24 F= -.95619040E+02 E0= -.95619040E+02  d E =-.210627E-02  mag=    12.0000
       N       E                     dE             d eps       ncg     rms          rms(c)
DAV:   1    -0.956186707337E+02    0.36933E-03   -0.81666E-02 46384   0.267E+00    0.249E-01
RMM:   2    -0.956194992525E+02   -0.82852E-03   -0.10580E-02 49573   0.533E-01    0.183E-01
RMM:   3    -0.956193434170E+02    0.15584E-03   -0.13360E-03 46245   0.147E-01    0.121E-01
RMM:   4    -0.956192350592E+02    0.10836E-03   -0.13520E-04 42041   0.529E-02    0.462E-02
RMM:   5    -0.956192221320E+02    0.12927E-04   -0.30665E-05 42467   0.240E-02    0.185E-02
RMM:   6    -0.956192198006E+02    0.23314E-05   -0.51965E-06 36682   0.936E-03    0.961E-03
RMM:   7    -0.956192194613E+02    0.33932E-06   -0.10286E-06 26717   0.500E-03
  25 F= -.95619219E+02 E0= -.95619219E+02  d E =-.179575E-03  mag=    12.0000
