unknown system                          
           1
     2.916331    0.000000    0.000000
    -0.000001    4.580966    0.000145
     0.000002    0.000300    9.434393
   Mn   O 
   4   8
Direct configuration=     1
   0.25000072  0.10464202  0.85507427
   0.75000511  0.89535206  0.14493155
   0.74999617  0.60467421  0.64491494
   0.24999705  0.39531998  0.35508611
   0.24999822  0.74395037  0.56132422
   0.74999931  0.24390294  0.93865275
   0.25000392  0.75609963  0.06134651
   0.74999956  0.25604945  0.43867779
   0.25000232  0.14120830  0.20623544
   0.24999841  0.35880311  0.70622312
   0.75000023  0.64120471  0.29377330
   0.74999899  0.85879423  0.79376101
unknown system                          
           1
     2.992578    0.000002    0.000002
     0.000003    4.714350    0.000191
     0.000010    0.000393    9.761415
   Mn   O 
   4   8
Direct configuration=     2
   0.24999947  0.08933230  0.85016055
   0.75000387  0.91066726  0.14983761
   0.74999797  0.58936358  0.64982544
   0.24999930  0.41063672  0.35017441
   0.24999726  0.75814750  0.54902205
   0.75000059  0.25811619  0.95096325
   0.25000367  0.74188794  0.04903660
   0.74999801  0.24185341  0.45097821
   0.25000246  0.14892348  0.21013981
   0.24999824  0.35109025  0.71012764
   0.74999991  0.64890261  0.28987614
   0.74999925  0.85107975  0.78985929
unknown system                          
           1
     2.952110    0.000001    0.000001
     0.000001    4.643557    0.000166
     0.000006    0.000343    9.587851
   Mn   O 
   4   8
Direct configuration=     3
   0.25000010  0.09722788  0.85268107
   0.75000453  0.90276885  0.14732102
   0.74999703  0.59725972  0.64730651
   0.24999814  0.40273743  0.35269396
   0.24999775  0.75082556  0.55533263
   0.74999995  0.25078615  0.94464846
   0.25000377  0.74921717  0.05535109
   0.74999882  0.24917479  0.44466853
   0.25000239  0.14494459  0.20813703
   0.24999833  0.35506801  0.70812475
   0.75000007  0.64493256  0.29187525
   0.74999911  0.85505827  0.79186071
unknown system                          
           1
     2.868326    0.000003    0.000001
     0.000003    4.646116    0.000172
     0.000004    0.000354    9.623741
   Mn   O 
   4   8
Direct configuration=     4
   0.24999991  0.08989847  0.85456538
   0.75000152  0.91010351  0.14543346
   0.74999798  0.58992662  0.64542335
   0.24999935  0.41007275  0.35457696
   0.24999790  0.75010763  0.55025876
   0.75000042  0.25007703  0.94972722
   0.25000354  0.74992497  0.05027242
   0.74999871  0.24989242  0.44974165
   0.25000241  0.14874116  0.21114309
   0.24999848  0.35127043  0.71113141
   0.75000020  0.64872520  0.28887103
   0.74999959  0.85126082  0.78885628
unknown system                          
           1
     2.785580    0.000004    0.000000
     0.000006    4.648643    0.000178
     0.000003    0.000365    9.659187
   Mn   O 
   4   8
Direct configuration=     5
   0.24999972  0.08266385  0.85641942
   0.74999846  0.91734332  0.14357622
   0.74999895  0.58268836  0.64357047
   0.25000057  0.41731319  0.35642969
   0.24999804  0.74939899  0.54526643
   0.75000089  0.24937706  0.95472435
   0.25000330  0.75062363  0.04527537
   0.74999861  0.25060075  0.45473324
   0.25000243  0.15248862  0.21410082
   0.24999864  0.34752196  0.71408975
   0.75000032  0.65246879  0.28591510
   0.75000007  0.84751248  0.78590014
unknown system                          
           1
     2.782175    0.000003    0.000000
     0.000003    4.614823    0.000140
     0.000002    0.000285    9.615653
   Mn   O 
   4   8
Direct configuration=     6
   0.24999992  0.07582337  0.86119033
   0.74999853  0.92418215  0.13880723
   0.74999936  0.57584637  0.63880666
   0.25000113  0.42415412  0.36119375
   0.24999827  0.74155722  0.54084401
   0.75000048  0.24153701  0.95914868
   0.25000203  0.75846275  0.04085120
   0.74999951  0.25844185  0.45915636
   0.25000080  0.15596914  0.21671755
   0.24999930  0.34403623  0.71670926
   0.75000004  0.65595962  0.28329234
   0.75000063  0.84403117  0.78328361
unknown system                          
           1
     2.774439   -0.000001   -0.000000
    -0.000003    4.537992    0.000053
     0.000000    0.000103    9.516755
   Mn   O 
   4   8
Direct configuration=     7
   0.25000035  0.06016992  0.87207759
   0.74999869  0.93983181  0.12792435
   0.75000027  0.56018913  0.62793550
   0.25000244  0.43980897  0.37206549
   0.24999877  0.72361210  0.53075191
   0.74999953  0.22359616  0.96924501
   0.24999915  0.77640146  0.03075524
   0.75000158  0.27638542  0.46925009
   0.24999709  0.16393401  0.22268900
   0.25000081  0.33605966  0.72268701
   0.74999942  0.66394787  0.27730717
   0.75000189  0.83606450  0.77731263
unknown system                          
           1
     2.777729    0.000001   -0.000000
    -0.000000    4.570667    0.000090
     0.000001    0.000180    9.558815
   Mn   O 
   4   8
Direct configuration=     8
   0.25000018  0.06693970  0.86739930
   0.74999861  0.93306367  0.13260076
   0.74999990  0.56696091  0.63260700
   0.25000187  0.43303822  0.36739374
   0.24999858  0.73137336  0.53508865
   0.74999995  0.23135523  0.96490659
   0.25000037  0.76864331  0.03509350
   0.75000068  0.26862483  0.46491265
   0.24999866  0.16048918  0.22012299
   0.25000018  0.33950934  0.72011835
   0.74999968  0.66049314  0.27987902
   0.75000136  0.83951010  0.77987845
unknown system                          
           1
     2.776695    0.000000   -0.000000
    -0.000001    4.560397    0.000078
     0.000001    0.000156    9.545594
   Mn   O 
   4   8
Direct configuration=     9
   0.25000024  0.06482690  0.86886339
   0.74999863  0.93517595  0.13113726
   0.75000002  0.56484754  0.63114505
   0.25000205  0.43515127  0.36885577
   0.24999864  0.72895118  0.53373147
   0.74999982  0.22893369  0.96626432
   0.24999998  0.77106457  0.03373582
   0.75000096  0.27104680  0.46627005
   0.24999817  0.16156426  0.22092602
   0.25000038  0.33843272  0.72092222
   0.74999959  0.66157133  0.27907415
   0.75000153  0.83843478  0.77907547
unknown system                          
           1
     2.791606   -0.000000   -0.000000
    -0.000002    4.541280    0.000064
     0.000000    0.000125    9.518014
   Mn   O 
   4   8
Direct configuration=    10
   0.25000032  0.05969852  0.86997650
   0.74999873  0.94030305  0.13002483
   0.75000015  0.55971769  0.63003310
   0.25000211  0.44028107  0.36996779
   0.24999894  0.72541238  0.53102564
   0.74999968  0.22539810  0.96897141
   0.24999932  0.77460034  0.03102891
   0.75000135  0.27458549  0.46897601
   0.24999758  0.16254781  0.22188673
   0.25000064  0.33744620  0.72188427
   0.74999955  0.66255921  0.27811086
   0.75000164  0.83745115  0.77811494
unknown system                          
           1
     2.813347   -0.000001   -0.000000
    -0.000003    4.513407    0.000043
     0.000000    0.000081    9.477801
   Mn   O 
   4   8
Direct configuration=    11
   0.25000044  0.05218964  0.87160415
   0.74999888  0.94781005  0.12839818
   0.75000033  0.55220662  0.62840713
   0.25000220  0.44779206  0.37159386
   0.24999937  0.72023090  0.52706898
   0.74999947  0.22022136  0.97292992
   0.24999835  0.77977734  0.02707067
   0.75000191  0.27976681  0.47293288
   0.24999673  0.16398792  0.22329156
   0.25000102  0.33600177  0.72329104
   0.74999948  0.66400563  0.27670227
   0.75000181  0.83601091  0.77671037
unknown system                          
           1
     2.826842   -0.000000   -0.000000
    -0.000002    4.517897    0.000043
     0.000001    0.000081    9.477481
   Mn   O 
   4   8
Direct configuration=    12
   0.25000039  0.05037358  0.86993763
   0.74999875  0.94962602  0.13006437
   0.75000034  0.55038829  0.63007076
   0.25000198  0.44961119  0.36993026
   0.24999963  0.72114962  0.52689669
   0.74999958  0.22114313  0.97310230
   0.24999840  0.77885562  0.02689860
   0.75000173  0.27884896  0.47310495
   0.24999703  0.16291892  0.22288538
   0.25000096  0.33707172  0.72288550
   0.74999959  0.66293437  0.27710846
   0.75000163  0.83707957  0.77711609
unknown system                          
           1
     2.851336    0.000001   -0.000000
    -0.000000    4.526046    0.000043
     0.000001    0.000080    9.476899
   Mn   O 
   4   8
Direct configuration=    13
   0.25000031  0.04708070  0.86691278
   0.74999851  0.95291876  0.13308865
   0.75000035  0.54709127  0.63309036
   0.25000158  0.45290966  0.36691068
   0.25000009  0.72281545  0.52658398
   0.74999978  0.22281451  0.97341519
   0.24999850  0.77718434  0.02658629
   0.75000140  0.27718471  0.47341728
   0.24999757  0.16098060  0.22214812
   0.25000084  0.33901178  0.72214943
   0.74999979  0.66099196  0.27784573
   0.75000129  0.83901727  0.77785251
unknown system                          
           1
     2.855491    0.000001   -0.000000
     0.000000    4.526872    0.000036
     0.000001    0.000067    9.442431
   Mn   O 
   4   8
Direct configuration=    14
   0.25000032  0.04602244  0.86691251
   0.74999842  0.95397743  0.13308855
   0.75000042  0.54603081  0.63309013
   0.25000133  0.45397047  0.36691049
   0.25000022  0.72230829  0.52696615
   0.74999978  0.22230882  0.97303208
   0.24999862  0.77769110  0.02696867
   0.75000124  0.27769154  0.47303420
   0.24999789  0.16016013  0.22199168
   0.25000077  0.33983481  0.72199242
   0.74999991  0.66016573  0.27800448
   0.75000108  0.83983942  0.77800964
unknown system                          
           1
     2.867953    0.000002    0.000000
     0.000002    4.529350    0.000017
     0.000002    0.000028    9.339024
   Mn   O 
   4   8
Direct configuration=    15
   0.25000036  0.04284827  0.86691170
   0.74999815  0.95715284  0.13308824
   0.75000063  0.54285003  0.63308942
   0.25000057  0.45715235  0.36690993
   0.25000063  0.72078709  0.52811683
   0.74999977  0.22079202  0.97187855
   0.24999900  0.77921109  0.02811998
   0.75000077  0.27921176  0.47188078
   0.24999887  0.15769918  0.22152064
   0.25000055  0.34230345  0.72151968
   0.75000024  0.65768750  0.27848247
   0.75000047  0.84230542  0.77848278
unknown system                          
           1
     2.876641    0.000002    0.000001
     0.000002    4.542419    0.000016
     0.000004    0.000026    9.328147
   Mn   O 
   4   8
Direct configuration=    16
   0.25000012  0.04231770  0.86708570
   0.74999821  0.95768466  0.13291452
   0.75000049  0.54231744  0.63291422
   0.25000031  0.45768287  0.36708558
   0.25000223  0.72050216  0.52857372
   0.74999952  0.22050790  0.97142208
   0.24999905  0.77949601  0.02857693
   0.75000054  0.27949605  0.47142402
   0.24999884  0.15772191  0.22195827
   0.25000041  0.34228006  0.72195788
   0.75000004  0.65771336  0.27804364
   0.75000024  0.84228088  0.77804443
unknown system                          
           1
     2.887689    0.000002    0.000002
     0.000002    4.559037    0.000014
     0.000008    0.000023    9.314317
   Mn   O 
   4   8
Direct configuration=    17
   0.24999982  0.04164498  0.86730722
   0.74999829  0.95835896  0.13269337
   0.75000032  0.54164216  0.63269119
   0.24999999  0.45835553  0.36730919
   0.25000426  0.72014089  0.52915537
   0.74999920  0.22014766  0.97084096
   0.24999912  0.77985728  0.02915865
   0.75000024  0.27985650  0.47084254
   0.24999881  0.15775072  0.22251539
   0.25000023  0.34225041  0.72251572
   0.74999978  0.65774614  0.27748499
   0.74999994  0.84224977  0.77748639
unknown system                          
           1
     2.887485    0.000001    0.000002
    -0.000000    4.569399    0.000012
     0.000008    0.000019    9.300856
   Mn   O 
   4   8
Direct configuration=    18
   0.24999965  0.04086926  0.86690131
   0.74999855  0.95913485  0.13309944
   0.75000058  0.54086674  0.63309773
   0.25000002  0.45913114  0.36690256
   0.25000412  0.71925849  0.52959300
   0.74999893  0.21926304  0.97040534
   0.24999931  0.78074222  0.02959572
   0.75000028  0.28073959  0.47040679
   0.24999869  0.15777855  0.22311287
   0.25000026  0.34222341  0.72311288
   0.74999968  0.65777465  0.27688624
   0.74999994  0.84221906  0.77688712
unknown system                          
           1
     2.886965   -0.000003    0.000002
    -0.000006    4.595775    0.000007
     0.000007    0.000009    9.266590
   Mn   O 
   4   8
Direct configuration=    19
   0.24999919  0.03889909  0.86586654
   0.74999921  0.96110544  0.13413463
   0.75000125  0.53889734  0.63413409
   0.25000012  0.46110102  0.36586595
   0.25000375  0.71701739  0.53070861
   0.74999824  0.21701629  0.96929485
   0.24999978  0.78298977  0.03070992
   0.75000036  0.28298246  0.46929596
   0.24999839  0.15784922  0.22463599
   0.25000034  0.34215484  0.72463516
   0.74999943  0.65784707  0.27535987
   0.74999994  0.84214107  0.77535942
unknown system                          
           1
     2.886736   -0.000004    0.000002
    -0.000008    4.607401    0.000005
     0.000007    0.000005    9.251487
   Mn   O 
   4   8
Direct configuration=    20
   0.24999898  0.03803573  0.86540878
   0.74999950  0.96196898  0.13459257
   0.75000154  0.53803431  0.63459255
   0.25000017  0.46196426  0.36540737
   0.25000359  0.71603529  0.53120214
   0.74999794  0.21603173  0.96880359
   0.25000000  0.78397470  0.03120282
   0.75000040  0.28396532  0.46880456
   0.24999825  0.15788019  0.22530979
   0.25000037  0.34212479  0.72530859
   0.74999931  0.65787880  0.27468464
   0.74999994  0.84210689  0.77468360
unknown system                          
           1
     2.880748   -0.000002    0.000001
    -0.000004    4.624143    0.000010
     0.000005    0.000015    9.253006
   Mn   O 
   4   8
Direct configuration=    21
   0.24999907  0.03681704  0.86558743
   0.74999920  0.96318174  0.13441083
   0.75000172  0.53682078  0.63440783
   0.25000011  0.46318095  0.36559118
   0.25000271  0.71452852  0.53111859
   0.74999908  0.21452978  0.96888500
   0.24999912  0.78547709  0.03111938
   0.74999988  0.28546967  0.46888568
   0.24999911  0.15779000  0.22577975
   0.25000029  0.34220956  0.72578031
   0.75000014  0.65778546  0.27421589
   0.74999957  0.84221039  0.77421914
unknown system                          
           1
     2.876001    0.000000    0.000000
    -0.000001    4.637417    0.000014
     0.000003    0.000022    9.254211
   Mn   O 
   4   8
Direct configuration=    22
   0.24999913  0.03585434  0.86572905
   0.74999896  0.96413976  0.13426677
   0.75000187  0.53586215  0.63426140
   0.25000007  0.46414208  0.36573687
   0.25000201  0.71333825  0.53105235
   0.74999999  0.21334332  0.96894953
   0.24999842  0.78666390  0.03105323
   0.74999948  0.28665804  0.46894998
   0.24999979  0.15771876  0.22615228
   0.25000022  0.34227652  0.72615425
   0.75000080  0.65771172  0.27384431
   0.74999927  0.84229216  0.77385096
unknown system                          
           1
     2.875886    0.000000   -0.000001
    -0.000001    4.659871    0.000016
    -0.000001    0.000027    9.277404
   Mn   O 
   4   8
Direct configuration=    23
   0.24999928  0.03458483  0.86535490
   0.74999904  0.96542100  0.13464536
   0.75000125  0.53458079  0.63464983
   0.25000037  0.46541566  0.36534970
   0.25000049  0.71253801  0.53054784
   0.75000041  0.21253495  0.96945062
   0.24999837  0.78746335  0.03054869
   0.74999978  0.28746383  0.46945286
   0.25000011  0.15763516  0.22649975
   0.25000063  0.34236830  0.72649628
   0.75000085  0.65762435  0.27350248
   0.74999943  0.84237077  0.77350268
unknown system                          
           1
     2.875931    0.000000   -0.000000
    -0.000001    4.651182    0.000015
     0.000001    0.000025    9.268430
   Mn   O 
   4   8
Direct configuration=    24
   0.24999922  0.03507370  0.86549932
   0.74999901  0.96492762  0.13449923
   0.75000149  0.53507422  0.63449990
   0.25000025  0.46492523  0.36549914
   0.25000108  0.71284617  0.53074257
   0.75000025  0.21284624  0.96925721
   0.24999839  0.78715549  0.03074343
   0.74999966  0.28715354  0.46925876
   0.24999998  0.15766735  0.22636563
   0.25000047  0.34233296  0.72636426
   0.75000084  0.65765799  0.27363442
   0.74999936  0.84234049  0.77363711
unknown system                          
           1
     2.875312   -0.000003   -0.000000
    -0.000007    4.651682    0.000012
     0.000000    0.000019    9.263552
   Mn   O 
   4   8
Direct configuration=    25
   0.24999934  0.03511357  0.86540186
   0.74999935  0.96489059  0.13459893
   0.75000091  0.53511210  0.63459890
   0.25000045  0.46488653  0.36540153
   0.25000071  0.71267705  0.53058355
   0.74999975  0.21267748  0.96941626
   0.24999903  0.78732357  0.03058459
   0.75000019  0.28732365  0.46941768
   0.24999964  0.15763380  0.22636992
   0.25000066  0.34236557  0.72636918
   0.75000552  0.65763100  0.27362860
   0.74999444  0.84236609  0.77362999
