       N       E                     dE             d eps       ncg     rms          rms(c)
DAV:   1     0.413627363694E+02    0.41363E+02   -0.72891E+03 12960   0.894E+02
DAV:   2    -0.309387738100E+02   -0.72302E+02   -0.66376E+02 18104   0.186E+02
DAV:   3    -0.344397275789E+02   -0.35010E+01   -0.34913E+01 16200   0.425E+01
DAV:   4    -0.344613849265E+02   -0.21657E-01   -0.21656E-01 16232   0.378E+00
DAV:   5    -0.344616720865E+02   -0.28716E-03   -0.28716E-03 16600   0.439E-01    0.121E+01
RMM:   6    -0.298253463116E+02    0.46363E+01   -0.10266E+01 12960   0.169E+01    0.426E+00
RMM:   7    -0.297903596964E+02    0.34987E-01   -0.15490E-01 14668   0.241E+00    0.278E+00
RMM:   8    -0.297849063712E+02    0.54533E-02   -0.51095E-02 13398   0.208E+00    0.613E-01
RMM:   9    -0.297823963232E+02    0.25100E-02   -0.81966E-04 15586   0.154E-01    0.479E-01
RMM:  10    -0.297820535910E+02    0.34273E-03   -0.21943E-02 14103   0.779E-01    0.272E-01
RMM:  11    -0.297808695891E+02    0.11840E-02   -0.10126E-03 14431   0.182E-01    0.937E-02
RMM:  12    -0.297807691091E+02    0.10048E-03   -0.23272E-04 14983   0.859E-02    0.275E-02
RMM:  13    -0.297807636870E+02    0.54221E-05   -0.35006E-05 15283   0.337E-02    0.114E-03
RMM:  14    -0.297807641779E+02   -0.49088E-06   -0.22401E-06 11977   0.889E-03
   1 F= -.29780764E+02 E0= -.29780764E+02  d E =-.707932E-13
