 vasp.5.4.4.18Apr17-6-g9f103f2a35 (build Nov 08 2022 17:27:33) complex          
  
 executed on             LinuxIFC date 2023.06.05  09:45:29
 running on   32 total cores
 distrk:  each k-point on   32 cores,    1 groups
 distr:  one band on NCORES_PER_BAND=   4 cores,    8 groups


--------------------------------------------------------------------------------------------------------


 INCAR:
 POTCAR:    PAW_PBE Al 04Jan2001                  
 POTCAR:    PAW_PBE N 08Apr2002                   
 POTCAR:    PAW_PBE Al 04Jan2001                  
   VRHFIN =Al: s2p1                                                             
   LEXCH  = PE                                                                  
   EATOM  =    53.5387 eV,    3.9350 Ry                                         
                                                                                
   TITEL  = PAW_PBE Al 04Jan2001                                                
   LULTRA =        F    use ultrasoft PP ?                                      
   IUNSCR =        1    unscreen: 0-lin 1-nonlin 2-no                           
   RPACOR =    1.500    partial core radius                                     
   POMASS =   26.981; ZVAL   =    3.000    mass and valenz                      
   RCORE  =    1.900    outmost cutoff radius                                   
   RWIGS  =    2.650; RWIGS  =    1.402    wigner-seitz radius (au A)           
   ENMAX  =  240.300; ENMIN  =  180.225 eV                                      
   ICORE  =        2    local potential                                         
   LCOR   =        T    correct aug charges                                     
   LPAW   =        T    paw PP                                                  
   EAUG   =  291.052                                                            
   DEXC   =    0.000                                                            
   RMAX   =    1.939    core radius for proj-oper                               
   RAUG   =    1.300    factor for augmentation sphere                          
   RDEP   =    1.966    radius for radial grids                                 
   RDEPT  =    1.856    core radius for aug-charge                              
                                                                                
   Atomic configuration                                                         
    6 entries                                                                   
     n  l   j            E        occ.                                          
     1  0  0.50     -1511.1048   2.0000                                         
     2  0  0.50      -108.1629   2.0000                                         
     2  1  1.50       -69.6402   6.0000                                         
     3  0  0.50        -7.7528   2.0000                                         
     3  1  1.50        -2.7121   1.0000                                         
     3  2  2.50        -2.7212   0.0000                                         
   Description                                                                  
     l       E           TYP  RCUT    TYP  RCUT                                 
     0     -7.7528455     23  1.900                                             
     0     -3.3096929     23  1.900                                             
     1     -2.7120682     23  1.900                                             
     1     13.6058260     23  1.900                                             
     2     -2.7211652      7  1.900                                             
  local pseudopotential read in
  partial core-charges read in
  partial kinetic energy density read in
  atomic valenz-charges read in
  non local Contribution for L=           0  read in
    real space projection operators read in
  non local Contribution for L=           0  read in
    real space projection operators read in
  non local Contribution for L=           1  read in
    real space projection operators read in
  non local Contribution for L=           1  read in
    real space projection operators read in
    PAW grid and wavefunctions read in
 
   number of l-projection  operators is LMAX  =           4
   number of lm-projection operators is LMMAX =           8
 
 POTCAR:    PAW_PBE N 08Apr2002                   
   VRHFIN =N: s2p3                                                              
   LEXCH  = PE                                                                  
   EATOM  =   264.5486 eV,   19.4438 Ry                                         
                                                                                
   TITEL  = PAW_PBE N 08Apr2002                                                 
   LULTRA =        F    use ultrasoft PP ?                                      
   IUNSCR =        1    unscreen: 0-lin 1-nonlin 2-no                           
   RPACOR =    1.200    partial core radius                                     
   POMASS =   14.001; ZVAL   =    5.000    mass and valenz                      
   RCORE  =    1.500    outmost cutoff radius                                   
   RWIGS  =    1.400; RWIGS  =    0.741    wigner-seitz radius (au A)           
   ENMAX  =  400.000; ENMIN  =  300.000 eV                                      
   ICORE  =        2    local potential                                         
   LCOR   =        T    correct aug charges                                     
   LPAW   =        T    paw PP                                                  
   EAUG   =  627.112                                                            
   DEXC   =    0.000                                                            
   RMAX   =    1.529    core radius for proj-oper                               
   RAUG   =    1.300    factor for augmentation sphere                          
   RDEP   =    1.514    radius for radial grids                                 
   RDEPT  =    1.338    core radius for aug-charge                              
                                                                                
   Atomic configuration                                                         
    4 entries                                                                   
     n  l   j            E        occ.                                          
     1  0  0.50      -384.7179   2.0000                                         
     2  0  0.50       -18.5828   2.0000                                         
     2  1  0.50        -7.0898   3.0000                                         
     3  2  1.50        -6.8029   0.0000                                         
   Description                                                                  
     l       E           TYP  RCUT    TYP  RCUT                                 
     0    -18.5828119     23  1.200                                             
     0    -13.5018863     23  1.200                                             
     1     -7.0897853     23  1.500                                             
     1      9.5240782     23  1.500                                             
     2     -6.8029130      7  1.500                                             
  local pseudopotential read in
  partial core-charges read in
  partial kinetic energy density read in
  atomic valenz-charges read in
  non local Contribution for L=           0  read in
    real space projection operators read in
  non local Contribution for L=           0  read in
    real space projection operators read in
  non local Contribution for L=           1  read in
    real space projection operators read in
  non local Contribution for L=           1  read in
    real space projection operators read in
    PAW grid and wavefunctions read in
 
   number of l-projection  operators is LMAX  =           4
   number of lm-projection operators is LMMAX =           8
 

 ----------------------------------------------------------------------------- 
|                                                                             |
|  ADVICE TO THIS USER RUNNING 'VASP/VAMP'   (HEAR YOUR MASTER'S VOICE ...):  |
|                                                                             |
|      You have a (more or less) 'small supercell' and for smaller cells      |
|      it is recommended  to use the reciprocal-space projection scheme!      |
|      The real space optimization is not  efficient for small cells and it   |
|      is also less accurate ...                                              |
|      Therefore set LREAL=.FALSE. in the  INCAR file                         |
|                                                                             |
 ----------------------------------------------------------------------------- 

 Optimization of the real space projectors (new method)

 maximal supplied QI-value         = 19.84
 optimisation between [QCUT,QGAM] = [ 11.51, 23.22] = [ 37.09,150.92] Ry 
 Optimized for a Real-space Cutoff    1.18 Angstroem

   l    n(q)    QCUT    max X(q) W(low)/X(q) W(high)/X(q)  e(spline) 
   0      8    11.508   176.870    0.11E-03    0.16E-03    0.40E-07
   0      8    11.508   105.762    0.11E-03    0.16E-03    0.39E-07
   1      8    11.508    55.370    0.23E-03    0.10E-03    0.75E-07
   1      8    11.508    20.208    0.21E-03    0.91E-04    0.68E-07
 Optimization of the real space projectors (new method)

 maximal supplied QI-value         = 25.13
 optimisation between [QCUT,QGAM] = [ 11.56, 23.12] = [ 37.43,149.72] Ry 
 Optimized for a Real-space Cutoff    1.40 Angstroem

   l    n(q)    QCUT    max X(q) W(low)/X(q) W(high)/X(q)  e(spline) 
   0     10    11.561    79.467    0.46E-04    0.78E-04    0.61E-06
   0     10    11.561    66.151    0.45E-04    0.77E-04    0.61E-06
   1      9    11.561    18.886    0.22E-03    0.13E-03    0.12E-05
   1      9    11.561    13.488    0.23E-03    0.13E-03    0.12E-05
  PAW_PBE Al 04Jan2001                  :
 energy of atom  1       EATOM=  -53.5387
 kinetic energy error for atom=    0.0002 (will be added to EATOM!!)
  PAW_PBE N 08Apr2002                   :
 energy of atom  2       EATOM= -264.5486
 kinetic energy error for atom=    0.0125 (will be added to EATOM!!)
 
 
 POSCAR: Al2 N2                                  
  positions in direct lattice
  velocities in cartesian coordinates
 exchange correlation table for  LEXCH =        8
   RHO(1)=    0.500       N(1)  =     2000
   RHO(2)=  100.500       N(2)  =     4000

 VTST: version 3.2, (02/03/18)

 CHAIN: initializing optimizer
 
 OPT: Using VASP Conjugate-Gradient optimizer
 CHAIN: Read ICHAIN            0
 
 POSCAR: Al2 N2                                  
  positions in direct lattice
  velocities in cartesian coordinates
 


--------------------------------------------------------------------------------------------------------


 ion  position               nearest neighbor table
   1  0.667  0.333  0.499-   4 1.90   4 1.90   4 1.90   3 1.91   2 3.09   2 3.09   2 3.09   2 3.09
                             2 3.09   2 3.09
   2  0.333  0.667  0.999-   3 1.90   3 1.90   3 1.90   4 1.91   1 3.09   1 3.09   1 3.09   1 3.09
                             1 3.09   1 3.09
   3  0.667  0.333  0.881-   2 1.90   2 1.90   2 1.90   1 1.91
   4  0.333  0.667  0.381-   1 1.90   1 1.90   1 1.90   2 1.91
 

IMPORTANT INFORMATION: All symmetrisations will be switched off!
NOSYMM: (Re-)initialisation of all symmetry stuff for point group C_1.

 
 
 KPOINTS: Fully automatic kpoint scheme           

Automatic generation of k-mesh.
 generate k-points for:    9    9    5
Space group operators:
 irot       det(A)        alpha          n_x          n_y          n_z        tau_x        tau_y        tau_z
    1     1.000000     0.000001     1.000000     0.000000     0.000000     0.000000     0.000000     0.000000
 
 Subroutine IBZKPT returns following result:
 ===========================================
 
 Found    405 irreducible k-points:
 
 Following reciprocal coordinates:
            Coordinates               Weight
  0.000000  0.000000  0.000000      1.000000
  0.111111  0.000000  0.000000      1.000000
  0.222222  0.000000  0.000000      1.000000
  0.333333  0.000000  0.000000      1.000000
  0.444444  0.000000  0.000000      1.000000
 -0.444444 -0.000000 -0.000000      1.000000
 -0.333333 -0.000000 -0.000000      1.000000
 -0.222222 -0.000000 -0.000000      1.000000
 -0.111111 -0.000000  0.000000      1.000000
  0.000000  0.111111 -0.000000      1.000000
  0.111111  0.111111 -0.000000      1.000000
  0.222222  0.111111  0.000000      1.000000
  0.333333  0.111111 -0.000000      1.000000
  0.444444  0.111111  0.000000      1.000000
 -0.444444  0.111111 -0.000000      1.000000
 -0.333333  0.111111  0.000000      1.000000
 -0.222222  0.111111 -0.000000      1.000000
 -0.111111  0.111111  0.000000      1.000000
 -0.000000  0.222222  0.000000      1.000000
  0.111111  0.222222  0.000000      1.000000
  0.222222  0.222222  0.000000      1.000000
  0.333333  0.222222 -0.000000      1.000000
  0.444444  0.222222  0.000000      1.000000
 -0.444444  0.222222 -0.000000      1.000000
 -0.333333  0.222222  0.000000      1.000000
 -0.222222  0.222222  0.000000      1.000000
 -0.111111  0.222222  0.000000      1.000000
  0.000000  0.333333  0.000000      1.000000
  0.111111  0.333333  0.000000      1.000000
  0.222222  0.333333  0.000000      1.000000
  0.333333  0.333333  0.000000      1.000000
  0.444444  0.333333  0.000000      1.000000
 -0.444444  0.333333  0.000000      1.000000
 -0.333333  0.333333 -0.000000      1.000000
 -0.222222  0.333333 -0.000000      1.000000
 -0.111111  0.333333  0.000000      1.000000
 -0.000000  0.444444  0.000000      1.000000
  0.111111  0.444444 -0.000000      1.000000
  0.222222  0.444444  0.000000      1.000000
  0.333333  0.444444  0.000000      1.000000
  0.444444  0.444444  0.000000      1.000000
 -0.444444  0.444444  0.000000      1.000000
 -0.333333  0.444444 -0.000000      1.000000
 -0.222222  0.444444  0.000000      1.000000
 -0.111111  0.444444  0.000000      1.000000
  0.000000 -0.444444 -0.000000      1.000000
  0.111111 -0.444444  0.000000      1.000000
  0.222222 -0.444444  0.000000      1.000000
  0.333333 -0.444444  0.000000      1.000000
  0.444444 -0.444444 -0.000000      1.000000
 -0.444444 -0.444444 -0.000000      1.000000
 -0.333333 -0.444444 -0.000000      1.000000
 -0.222222 -0.444444 -0.000000      1.000000
 -0.111111 -0.444444  0.000000      1.000000
 -0.000000 -0.333333 -0.000000      1.000000
  0.111111 -0.333333 -0.000000      1.000000
  0.222222 -0.333333  0.000000      1.000000
  0.333333 -0.333333  0.000000      1.000000
  0.444444 -0.333333 -0.000000      1.000000
 -0.444444 -0.333333 -0.000000      1.000000
 -0.333333 -0.333333 -0.000000      1.000000
 -0.222222 -0.333333 -0.000000      1.000000
 -0.111111 -0.333333  0.000000      1.000000
  0.000000 -0.222222 -0.000000      1.000000
  0.111111 -0.222222  0.000000      1.000000
  0.222222 -0.222222 -0.000000      1.000000
  0.333333 -0.222222  0.000000      1.000000
  0.444444 -0.222222  0.000000      1.000000
 -0.444444 -0.222222 -0.000000      1.000000
 -0.333333 -0.222222  0.000000      1.000000
 -0.222222 -0.222222 -0.000000      1.000000
 -0.111111 -0.222222  0.000000      1.000000
 -0.000000 -0.111111  0.000000      1.000000
  0.111111 -0.111111  0.000000      1.000000
  0.222222 -0.111111  0.000000      1.000000
  0.333333 -0.111111  0.000000      1.000000
  0.444444 -0.111111  0.000000      1.000000
 -0.444444 -0.111111 -0.000000      1.000000
 -0.333333 -0.111111  0.000000      1.000000
 -0.222222 -0.111111 -0.000000      1.000000
 -0.111111 -0.111111  0.000000      1.000000
  0.000000 -0.000000  0.200000      1.000000
  0.111111  0.000000  0.200000      1.000000
  0.222222  0.000000  0.200000      1.000000
  0.333333  0.000000  0.200000      1.000000
  0.444444  0.000000  0.200000      1.000000
 -0.444444  0.000000  0.200000      1.000000
 -0.333333 -0.000000  0.200000      1.000000
 -0.222222 -0.000000  0.200000      1.000000
 -0.111111 -0.000000  0.200000      1.000000
  0.000000  0.111111  0.200000      1.000000
  0.111111  0.111111  0.200000      1.000000
  0.222222  0.111111  0.200000      1.000000
  0.333333  0.111111  0.200000      1.000000
  0.444444  0.111111  0.200000      1.000000
 -0.444444  0.111111  0.200000      1.000000
 -0.333333  0.111111  0.200000      1.000000
 -0.222222  0.111111  0.200000      1.000000
 -0.111111  0.111111  0.200000      1.000000
 -0.000000  0.222222  0.200000      1.000000
  0.111111  0.222222  0.200000      1.000000
  0.222222  0.222222  0.200000      1.000000
  0.333333  0.222222  0.200000      1.000000
  0.444444  0.222222  0.200000      1.000000
 -0.444444  0.222222  0.200000      1.000000
 -0.333333  0.222222  0.200000      1.000000
 -0.222222  0.222222  0.200000      1.000000
 -0.111111  0.222222  0.200000      1.000000
  0.000000  0.333333  0.200000      1.000000
  0.111111  0.333333  0.200000      1.000000
  0.222222  0.333333  0.200000      1.000000
  0.333333  0.333333  0.200000      1.000000
  0.444444  0.333333  0.200000      1.000000
 -0.444444  0.333333  0.200000      1.000000
 -0.333333  0.333333  0.200000      1.000000
 -0.222222  0.333333  0.200000      1.000000
 -0.111111  0.333333  0.200000      1.000000
 -0.000000  0.444444  0.200000      1.000000
  0.111111  0.444444  0.200000      1.000000
  0.222222  0.444444  0.200000      1.000000
  0.333333  0.444444  0.200000      1.000000
  0.444444  0.444444  0.200000      1.000000
 -0.444444  0.444444  0.200000      1.000000
 -0.333333  0.444444  0.200000      1.000000
 -0.222222  0.444444  0.200000      1.000000
 -0.111111  0.444444  0.200000      1.000000
  0.000000 -0.444444  0.200000      1.000000
  0.111111 -0.444444  0.200000      1.000000
  0.222222 -0.444444  0.200000      1.000000
  0.333333 -0.444444  0.200000      1.000000
  0.444444 -0.444444  0.200000      1.000000
 -0.444444 -0.444444  0.200000      1.000000
 -0.333333 -0.444444  0.200000      1.000000
 -0.222222 -0.444444  0.200000      1.000000
 -0.111111 -0.444444  0.200000      1.000000
 -0.000000 -0.333333  0.200000      1.000000
  0.111111 -0.333333  0.200000      1.000000
  0.222222 -0.333333  0.200000      1.000000
  0.333333 -0.333333  0.200000      1.000000
  0.444444 -0.333333  0.200000      1.000000
 -0.444444 -0.333333  0.200000      1.000000
 -0.333333 -0.333333  0.200000      1.000000
 -0.222222 -0.333333  0.200000      1.000000
 -0.111111 -0.333333  0.200000      1.000000
  0.000000 -0.222222  0.200000      1.000000
  0.111111 -0.222222  0.200000      1.000000
  0.222222 -0.222222  0.200000      1.000000
  0.333333 -0.222222  0.200000      1.000000
  0.444444 -0.222222  0.200000      1.000000
 -0.444444 -0.222222  0.200000      1.000000
 -0.333333 -0.222222  0.200000      1.000000
 -0.222222 -0.222222  0.200000      1.000000
 -0.111111 -0.222222  0.200000      1.000000
 -0.000000 -0.111111  0.200000      1.000000
  0.111111 -0.111111  0.200000      1.000000
  0.222222 -0.111111  0.200000      1.000000
  0.333333 -0.111111  0.200000      1.000000
  0.444444 -0.111111  0.200000      1.000000
 -0.444444 -0.111111  0.200000      1.000000
 -0.333333 -0.111111  0.200000      1.000000
 -0.222222 -0.111111  0.200000      1.000000
 -0.111111 -0.111111  0.200000      1.000000
  0.000000 -0.000000  0.400000      1.000000
  0.111111  0.000000  0.400000      1.000000
  0.222222  0.000000  0.400000      1.000000
  0.333333  0.000000  0.400000      1.000000
  0.444444  0.000000  0.400000      1.000000
 -0.444444 -0.000000  0.400000      1.000000
 -0.333333 -0.000000  0.400000      1.000000
 -0.222222 -0.000000  0.400000      1.000000
 -0.111111 -0.000000  0.400000      1.000000
 -0.000000  0.111111  0.400000      1.000000
  0.111111  0.111111  0.400000      1.000000
  0.222222  0.111111  0.400000      1.000000
  0.333333  0.111111  0.400000      1.000000
  0.444444  0.111111  0.400000      1.000000
 -0.444444  0.111111  0.400000      1.000000
 -0.333333  0.111111  0.400000      1.000000
 -0.222222  0.111111  0.400000      1.000000
 -0.111111  0.111111  0.400000      1.000000
 -0.000000  0.222222  0.400000      1.000000
  0.111111  0.222222  0.400000      1.000000
  0.222222  0.222222  0.400000      1.000000
  0.333333  0.222222  0.400000      1.000000
  0.444444  0.222222  0.400000      1.000000
 -0.444444  0.222222  0.400000      1.000000
 -0.333333  0.222222  0.400000      1.000000
 -0.222222  0.222222  0.400000      1.000000
 -0.111111  0.222222  0.400000      1.000000
  0.000000  0.333333  0.400000      1.000000
  0.111111  0.333333  0.400000      1.000000
  0.222222  0.333333  0.400000      1.000000
  0.333333  0.333333  0.400000      1.000000
  0.444444  0.333333  0.400000      1.000000
 -0.444444  0.333333  0.400000      1.000000
 -0.333333  0.333333  0.400000      1.000000
 -0.222222  0.333333  0.400000      1.000000
 -0.111111  0.333333  0.400000      1.000000
 -0.000000  0.444444  0.400000      1.000000
  0.111111  0.444444  0.400000      1.000000
  0.222222  0.444444  0.400000      1.000000
  0.333333  0.444444  0.400000      1.000000
  0.444444  0.444444  0.400000      1.000000
 -0.444444  0.444444  0.400000      1.000000
 -0.333333  0.444444  0.400000      1.000000
 -0.222222  0.444444  0.400000      1.000000
 -0.111111  0.444444  0.400000      1.000000
  0.000000 -0.444444  0.400000      1.000000
  0.111111 -0.444444  0.400000      1.000000
  0.222222 -0.444444  0.400000      1.000000
  0.333333 -0.444444  0.400000      1.000000
  0.444444 -0.444444  0.400000      1.000000
 -0.444444 -0.444444  0.400000      1.000000
 -0.333333 -0.444444  0.400000      1.000000
 -0.222222 -0.444444  0.400000      1.000000
 -0.111111 -0.444444  0.400000      1.000000
  0.000000 -0.333333  0.400000      1.000000
  0.111111 -0.333333  0.400000      1.000000
  0.222222 -0.333333  0.400000      1.000000
  0.333333 -0.333333  0.400000      1.000000
  0.444444 -0.333333  0.400000      1.000000
 -0.444444 -0.333333  0.400000      1.000000
 -0.333333 -0.333333  0.400000      1.000000
 -0.222222 -0.333333  0.400000      1.000000
 -0.111111 -0.333333  0.400000      1.000000
 -0.000000 -0.222222  0.400000      1.000000
  0.111111 -0.222222  0.400000      1.000000
  0.222222 -0.222222  0.400000      1.000000
  0.333333 -0.222222  0.400000      1.000000
  0.444444 -0.222222  0.400000      1.000000
 -0.444444 -0.222222  0.400000      1.000000
 -0.333333 -0.222222  0.400000      1.000000
 -0.222222 -0.222222  0.400000      1.000000
 -0.111111 -0.222222  0.400000      1.000000
 -0.000000 -0.111111  0.400000      1.000000
  0.111111 -0.111111  0.400000      1.000000
  0.222222 -0.111111  0.400000      1.000000
  0.333333 -0.111111  0.400000      1.000000
  0.444444 -0.111111  0.400000      1.000000
 -0.444444 -0.111111  0.400000      1.000000
 -0.333333 -0.111111  0.400000      1.000000
 -0.222222 -0.111111  0.400000      1.000000
 -0.111111 -0.111111  0.400000      1.000000
  0.000000  0.000000 -0.400000      1.000000
  0.111111  0.000000 -0.400000      1.000000
  0.222222  0.000000 -0.400000      1.000000
  0.333333  0.000000 -0.400000      1.000000
  0.444444  0.000000 -0.400000      1.000000
 -0.444444 -0.000000 -0.400000      1.000000
 -0.333333 -0.000000 -0.400000      1.000000
 -0.222222 -0.000000 -0.400000      1.000000
 -0.111111 -0.000000 -0.400000      1.000000
  0.000000  0.111111 -0.400000      1.000000
  0.111111  0.111111 -0.400000      1.000000
  0.222222  0.111111 -0.400000      1.000000
  0.333333  0.111111 -0.400000      1.000000
  0.444444  0.111111 -0.400000      1.000000
 -0.444444  0.111111 -0.400000      1.000000
 -0.333333  0.111111 -0.400000      1.000000
 -0.222222  0.111111 -0.400000      1.000000
 -0.111111  0.111111 -0.400000      1.000000
  0.000000  0.222222 -0.400000      1.000000
  0.111111  0.222222 -0.400000      1.000000
  0.222222  0.222222 -0.400000      1.000000
  0.333333  0.222222 -0.400000      1.000000
  0.444444  0.222222 -0.400000      1.000000
 -0.444444  0.222222 -0.400000      1.000000
 -0.333333  0.222222 -0.400000      1.000000
 -0.222222  0.222222 -0.400000      1.000000
 -0.111111  0.222222 -0.400000      1.000000
 -0.000000  0.333333 -0.400000      1.000000
  0.111111  0.333333 -0.400000      1.000000
  0.222222  0.333333 -0.400000      1.000000
  0.333333  0.333333 -0.400000      1.000000
  0.444444  0.333333 -0.400000      1.000000
 -0.444444  0.333333 -0.400000      1.000000
 -0.333333  0.333333 -0.400000      1.000000
 -0.222222  0.333333 -0.400000      1.000000
 -0.111111  0.333333 -0.400000      1.000000
 -0.000000  0.444444 -0.400000      1.000000
  0.111111  0.444444 -0.400000      1.000000
  0.222222  0.444444 -0.400000      1.000000
  0.333333  0.444444 -0.400000      1.000000
  0.444444  0.444444 -0.400000      1.000000
 -0.444444  0.444444 -0.400000      1.000000
 -0.333333  0.444444 -0.400000      1.000000
 -0.222222  0.444444 -0.400000      1.000000
 -0.111111  0.444444 -0.400000      1.000000
  0.000000 -0.444444 -0.400000      1.000000
  0.111111 -0.444444 -0.400000      1.000000
  0.222222 -0.444444 -0.400000      1.000000
  0.333333 -0.444444 -0.400000      1.000000
  0.444444 -0.444444 -0.400000      1.000000
 -0.444444 -0.444444 -0.400000      1.000000
 -0.333333 -0.444444 -0.400000      1.000000
 -0.222222 -0.444444 -0.400000      1.000000
 -0.111111 -0.444444 -0.400000      1.000000
 -0.000000 -0.333333 -0.400000      1.000000
  0.111111 -0.333333 -0.400000      1.000000
  0.222222 -0.333333 -0.400000      1.000000
  0.333333 -0.333333 -0.400000      1.000000
  0.444444 -0.333333 -0.400000      1.000000
 -0.444444 -0.333333 -0.400000      1.000000
 -0.333333 -0.333333 -0.400000      1.000000
 -0.222222 -0.333333 -0.400000      1.000000
 -0.111111 -0.333333 -0.400000      1.000000
  0.000000 -0.222222 -0.400000      1.000000
  0.111111 -0.222222 -0.400000      1.000000
  0.222222 -0.222222 -0.400000      1.000000
  0.333333 -0.222222 -0.400000      1.000000
  0.444444 -0.222222 -0.400000      1.000000
 -0.444444 -0.222222 -0.400000      1.000000
 -0.333333 -0.222222 -0.400000      1.000000
 -0.222222 -0.222222 -0.400000      1.000000
 -0.111111 -0.222222 -0.400000      1.000000
  0.000000 -0.111111 -0.400000      1.000000
  0.111111 -0.111111 -0.400000      1.000000
  0.222222 -0.111111 -0.400000      1.000000
  0.333333 -0.111111 -0.400000      1.000000
  0.444444 -0.111111 -0.400000      1.000000
 -0.444444 -0.111111 -0.400000      1.000000
 -0.333333 -0.111111 -0.400000      1.000000
 -0.222222 -0.111111 -0.400000      1.000000
 -0.111111 -0.111111 -0.400000      1.000000
  0.000000  0.000000 -0.200000      1.000000
  0.111111  0.000000 -0.200000      1.000000
  0.222222  0.000000 -0.200000      1.000000
  0.333333  0.000000 -0.200000      1.000000
  0.444444 -0.000000 -0.200000      1.000000
 -0.444444 -0.000000 -0.200000      1.000000
 -0.333333 -0.000000 -0.200000      1.000000
 -0.222222 -0.000000 -0.200000      1.000000
 -0.111111 -0.000000 -0.200000      1.000000
  0.000000  0.111111 -0.200000      1.000000
  0.111111  0.111111 -0.200000      1.000000
  0.222222  0.111111 -0.200000      1.000000
  0.333333  0.111111 -0.200000      1.000000
  0.444444  0.111111 -0.200000      1.000000
 -0.444444  0.111111 -0.200000      1.000000
 -0.333333  0.111111 -0.200000      1.000000
 -0.222222  0.111111 -0.200000      1.000000
 -0.111111  0.111111 -0.200000      1.000000
 -0.000000  0.222222 -0.200000      1.000000
  0.111111  0.222222 -0.200000      1.000000
  0.222222  0.222222 -0.200000      1.000000
  0.333333  0.222222 -0.200000      1.000000
  0.444444  0.222222 -0.200000      1.000000
 -0.444444  0.222222 -0.200000      1.000000
 -0.333333  0.222222 -0.200000      1.000000
 -0.222222  0.222222 -0.200000      1.000000
 -0.111111  0.222222 -0.200000      1.000000
  0.000000  0.333333 -0.200000      1.000000
  0.111111  0.333333 -0.200000      1.000000
  0.222222  0.333333 -0.200000      1.000000
  0.333333  0.333333 -0.200000      1.000000
  0.444444  0.333333 -0.200000      1.000000
 -0.444444  0.333333 -0.200000      1.000000
 -0.333333  0.333333 -0.200000      1.000000
 -0.222222  0.333333 -0.200000      1.000000
 -0.111111  0.333333 -0.200000      1.000000
 -0.000000  0.444444 -0.200000      1.000000
  0.111111  0.444444 -0.200000      1.000000
  0.222222  0.444444 -0.200000      1.000000
  0.333333  0.444444 -0.200000      1.000000
  0.444444  0.444444 -0.200000      1.000000
 -0.444444  0.444444 -0.200000      1.000000
 -0.333333  0.444444 -0.200000      1.000000
 -0.222222  0.444444 -0.200000      1.000000
 -0.111111  0.444444 -0.200000      1.000000
  0.000000 -0.444444 -0.200000      1.000000
  0.111111 -0.444444 -0.200000      1.000000
  0.222222 -0.444444 -0.200000      1.000000
  0.333333 -0.444444 -0.200000      1.000000
  0.444444 -0.444444 -0.200000      1.000000
 -0.444444 -0.444444 -0.200000      1.000000
 -0.333333 -0.444444 -0.200000      1.000000
 -0.222222 -0.444444 -0.200000      1.000000
 -0.111111 -0.444444 -0.200000      1.000000
 -0.000000 -0.333333 -0.200000      1.000000
  0.111111 -0.333333 -0.200000      1.000000
  0.222222 -0.333333 -0.200000      1.000000
  0.333333 -0.333333 -0.200000      1.000000
  0.444444 -0.333333 -0.200000      1.000000
 -0.444444 -0.333333 -0.200000      1.000000
 -0.333333 -0.333333 -0.200000      1.000000
 -0.222222 -0.333333 -0.200000      1.000000
 -0.111111 -0.333333 -0.200000      1.000000
  0.000000 -0.222222 -0.200000      1.000000
  0.111111 -0.222222 -0.200000      1.000000
  0.222222 -0.222222 -0.200000      1.000000
  0.333333 -0.222222 -0.200000      1.000000
  0.444444 -0.222222 -0.200000      1.000000
 -0.444444 -0.222222 -0.200000      1.000000
 -0.333333 -0.222222 -0.200000      1.000000
 -0.222222 -0.222222 -0.200000      1.000000
 -0.111111 -0.222222 -0.200000      1.000000
 -0.000000 -0.111111 -0.200000      1.000000
  0.111111 -0.111111 -0.200000      1.000000
  0.222222 -0.111111 -0.200000      1.000000
  0.333333 -0.111111 -0.200000      1.000000
  0.444444 -0.111111 -0.200000      1.000000
 -0.444444 -0.111111 -0.200000      1.000000
 -0.333333 -0.111111 -0.200000      1.000000
 -0.222222 -0.111111 -0.200000      1.000000
 -0.111111 -0.111111 -0.200000      1.000000
 
 Following cartesian coordinates:
            Coordinates               Weight
  0.000000  0.000000  0.000000      1.000000
  0.035512 -0.020503 -0.000000      1.000000
  0.071023 -0.041005 -0.000000      1.000000
  0.106535 -0.061508 -0.000000      1.000000
  0.142046 -0.082011 -0.000000      1.000000
 -0.142046  0.082011  0.000000      1.000000
 -0.106535  0.061508  0.000000      1.000000
 -0.071023  0.041005  0.000000      1.000000
 -0.035512  0.020503  0.000000      1.000000
  0.035512  0.020503  0.000000      1.000000
  0.071023 -0.000000  0.000000      1.000000
  0.106535 -0.020503  0.000000      1.000000
  0.142046 -0.041005  0.000000      1.000000
  0.177558 -0.061508  0.000000      1.000000
 -0.106535  0.102513  0.000000      1.000000
 -0.071023  0.082011  0.000000      1.000000
 -0.035512  0.061508  0.000000      1.000000
 -0.000000  0.041005  0.000000      1.000000
  0.071023  0.041005  0.000000      1.000000
  0.106535  0.020503  0.000000      1.000000
  0.142046 -0.000000  0.000000      1.000000
  0.177558 -0.020503  0.000000      1.000000
  0.213070 -0.041005  0.000000      1.000000
 -0.071023  0.123016  0.000000      1.000000
 -0.035512  0.102513  0.000000      1.000000
 -0.000000  0.082011  0.000000      1.000000
  0.035512  0.061508  0.000000      1.000000
  0.106535  0.061508  0.000000      1.000000
  0.142046  0.041005  0.000000      1.000000
  0.177558  0.020503  0.000000      1.000000
  0.213070 -0.000000  0.000000      1.000000
  0.248581 -0.020503  0.000000      1.000000
 -0.035512  0.143519  0.000000      1.000000
 -0.000000  0.123016  0.000000      1.000000
  0.035512  0.102513  0.000000      1.000000
  0.071023  0.082011  0.000000      1.000000
  0.142046  0.082011  0.000000      1.000000
  0.177558  0.061508  0.000000      1.000000
  0.213070  0.041005  0.000000      1.000000
  0.248581  0.020503  0.000000      1.000000
  0.284093 -0.000000  0.000000      1.000000
 -0.000000  0.164021  0.000000      1.000000
  0.035512  0.143519  0.000000      1.000000
  0.071023  0.123016  0.000000      1.000000
  0.106535  0.102513  0.000000      1.000000
 -0.142046 -0.082011 -0.000000      1.000000
 -0.106535 -0.102513 -0.000000      1.000000
 -0.071023 -0.123016 -0.000000      1.000000
 -0.035512 -0.143519 -0.000000      1.000000
  0.000000 -0.164021 -0.000000      1.000000
 -0.284093  0.000000 -0.000000      1.000000
 -0.248581 -0.020503 -0.000000      1.000000
 -0.213070 -0.041005 -0.000000      1.000000
 -0.177558 -0.061508 -0.000000      1.000000
 -0.106535 -0.061508 -0.000000      1.000000
 -0.071023 -0.082011 -0.000000      1.000000
 -0.035512 -0.102513 -0.000000      1.000000
  0.000000 -0.123016 -0.000000      1.000000
  0.035512 -0.143519 -0.000000      1.000000
 -0.248581  0.020503 -0.000000      1.000000
 -0.213070  0.000000 -0.000000      1.000000
 -0.177558 -0.020503 -0.000000      1.000000
 -0.142046 -0.041005 -0.000000      1.000000
 -0.071023 -0.041005 -0.000000      1.000000
 -0.035512 -0.061508 -0.000000      1.000000
  0.000000 -0.082011 -0.000000      1.000000
  0.035512 -0.102513 -0.000000      1.000000
  0.071023 -0.123016 -0.000000      1.000000
 -0.213070  0.041005 -0.000000      1.000000
 -0.177558  0.020503 -0.000000      1.000000
 -0.142046  0.000000 -0.000000      1.000000
 -0.106535 -0.020503 -0.000000      1.000000
 -0.035512 -0.020503 -0.000000      1.000000
  0.000000 -0.041005 -0.000000      1.000000
  0.035512 -0.061508 -0.000000      1.000000
  0.071023 -0.082011 -0.000000      1.000000
  0.106535 -0.102513 -0.000000      1.000000
 -0.177558  0.061508 -0.000000      1.000000
 -0.142046  0.041005 -0.000000      1.000000
 -0.106535  0.020503 -0.000000      1.000000
 -0.071023  0.000000 -0.000000      1.000000
  0.000000  0.000000  0.039874      1.000000
  0.035512 -0.020503  0.039874      1.000000
  0.071023 -0.041005  0.039874      1.000000
  0.106535 -0.061508  0.039874      1.000000
  0.142046 -0.082011  0.039874      1.000000
 -0.142046  0.082011  0.039874      1.000000
 -0.106535  0.061508  0.039874      1.000000
 -0.071023  0.041005  0.039874      1.000000
 -0.035512  0.020503  0.039874      1.000000
  0.035512  0.020503  0.039874      1.000000
  0.071023 -0.000000  0.039874      1.000000
  0.106535 -0.020503  0.039874      1.000000
  0.142046 -0.041005  0.039874      1.000000
  0.177558 -0.061508  0.039874      1.000000
 -0.106535  0.102513  0.039874      1.000000
 -0.071023  0.082011  0.039874      1.000000
 -0.035512  0.061508  0.039874      1.000000
 -0.000000  0.041005  0.039874      1.000000
  0.071023  0.041005  0.039874      1.000000
  0.106535  0.020503  0.039874      1.000000
  0.142046 -0.000000  0.039874      1.000000
  0.177558 -0.020503  0.039874      1.000000
  0.213070 -0.041005  0.039874      1.000000
 -0.071023  0.123016  0.039874      1.000000
 -0.035512  0.102513  0.039874      1.000000
 -0.000000  0.082011  0.039874      1.000000
  0.035512  0.061508  0.039874      1.000000
  0.106535  0.061508  0.039874      1.000000
  0.142046  0.041005  0.039874      1.000000
  0.177558  0.020503  0.039874      1.000000
  0.213070 -0.000000  0.039874      1.000000
  0.248581 -0.020503  0.039874      1.000000
 -0.035512  0.143519  0.039874      1.000000
 -0.000000  0.123016  0.039874      1.000000
  0.035512  0.102513  0.039874      1.000000
  0.071023  0.082011  0.039874      1.000000
  0.142046  0.082011  0.039874      1.000000
  0.177558  0.061508  0.039874      1.000000
  0.213070  0.041005  0.039874      1.000000
  0.248581  0.020503  0.039874      1.000000
  0.284093 -0.000000  0.039874      1.000000
 -0.000000  0.164021  0.039874      1.000000
  0.035512  0.143519  0.039874      1.000000
  0.071023  0.123016  0.039874      1.000000
  0.106535  0.102513  0.039874      1.000000
 -0.142046 -0.082011  0.039874      1.000000
 -0.106535 -0.102513  0.039874      1.000000
 -0.071023 -0.123016  0.039874      1.000000
 -0.035512 -0.143519  0.039874      1.000000
  0.000000 -0.164021  0.039874      1.000000
 -0.284093  0.000000  0.039874      1.000000
 -0.248581 -0.020503  0.039874      1.000000
 -0.213070 -0.041005  0.039874      1.000000
 -0.177558 -0.061508  0.039874      1.000000
 -0.106535 -0.061508  0.039874      1.000000
 -0.071023 -0.082011  0.039874      1.000000
 -0.035512 -0.102513  0.039874      1.000000
  0.000000 -0.123016  0.039874      1.000000
  0.035512 -0.143519  0.039874      1.000000
 -0.248581  0.020503  0.039874      1.000000
 -0.213070  0.000000  0.039874      1.000000
 -0.177558 -0.020503  0.039874      1.000000
 -0.142046 -0.041005  0.039874      1.000000
 -0.071023 -0.041005  0.039874      1.000000
 -0.035512 -0.061508  0.039874      1.000000
  0.000000 -0.082011  0.039874      1.000000
  0.035512 -0.102513  0.039874      1.000000
  0.071023 -0.123016  0.039874      1.000000
 -0.213070  0.041005  0.039874      1.000000
 -0.177558  0.020503  0.039874      1.000000
 -0.142046  0.000000  0.039874      1.000000
 -0.106535 -0.020503  0.039874      1.000000
 -0.035512 -0.020503  0.039874      1.000000
  0.000000 -0.041005  0.039874      1.000000
  0.035512 -0.061508  0.039874      1.000000
  0.071023 -0.082011  0.039874      1.000000
  0.106535 -0.102513  0.039874      1.000000
 -0.177558  0.061508  0.039874      1.000000
 -0.142046  0.041005  0.039874      1.000000
 -0.106535  0.020503  0.039874      1.000000
 -0.071023  0.000000  0.039874      1.000000
  0.000000  0.000000  0.079748      1.000000
  0.035512 -0.020503  0.079748      1.000000
  0.071023 -0.041005  0.079748      1.000000
  0.106535 -0.061508  0.079748      1.000000
  0.142046 -0.082011  0.079748      1.000000
 -0.142046  0.082011  0.079748      1.000000
 -0.106535  0.061508  0.079748      1.000000
 -0.071023  0.041005  0.079748      1.000000
 -0.035512  0.020503  0.079748      1.000000
  0.035512  0.020503  0.079748      1.000000
  0.071023 -0.000000  0.079748      1.000000
  0.106535 -0.020503  0.079748      1.000000
  0.142046 -0.041005  0.079748      1.000000
  0.177558 -0.061508  0.079748      1.000000
 -0.106535  0.102513  0.079748      1.000000
 -0.071023  0.082011  0.079748      1.000000
 -0.035512  0.061508  0.079748      1.000000
 -0.000000  0.041005  0.079748      1.000000
  0.071023  0.041005  0.079748      1.000000
  0.106535  0.020503  0.079748      1.000000
  0.142046 -0.000000  0.079748      1.000000
  0.177558 -0.020503  0.079748      1.000000
  0.213070 -0.041005  0.079748      1.000000
 -0.071023  0.123016  0.079748      1.000000
 -0.035512  0.102513  0.079748      1.000000
 -0.000000  0.082011  0.079748      1.000000
  0.035512  0.061508  0.079748      1.000000
  0.106535  0.061508  0.079748      1.000000
  0.142046  0.041005  0.079748      1.000000
  0.177558  0.020503  0.079748      1.000000
  0.213070 -0.000000  0.079748      1.000000
  0.248581 -0.020503  0.079748      1.000000
 -0.035512  0.143519  0.079748      1.000000
 -0.000000  0.123016  0.079748      1.000000
  0.035512  0.102513  0.079748      1.000000
  0.071023  0.082011  0.079748      1.000000
  0.142046  0.082011  0.079748      1.000000
  0.177558  0.061508  0.079748      1.000000
  0.213070  0.041005  0.079748      1.000000
  0.248581  0.020503  0.079748      1.000000
  0.284093 -0.000000  0.079748      1.000000
 -0.000000  0.164021  0.079748      1.000000
  0.035512  0.143519  0.079748      1.000000
  0.071023  0.123016  0.079748      1.000000
  0.106535  0.102513  0.079748      1.000000
 -0.142046 -0.082011  0.079748      1.000000
 -0.106535 -0.102513  0.079748      1.000000
 -0.071023 -0.123016  0.079748      1.000000
 -0.035512 -0.143519  0.079748      1.000000
  0.000000 -0.164021  0.079748      1.000000
 -0.284093  0.000000  0.079748      1.000000
 -0.248581 -0.020503  0.079748      1.000000
 -0.213070 -0.041005  0.079748      1.000000
 -0.177558 -0.061508  0.079748      1.000000
 -0.106535 -0.061508  0.079748      1.000000
 -0.071023 -0.082011  0.079748      1.000000
 -0.035512 -0.102513  0.079748      1.000000
  0.000000 -0.123016  0.079748      1.000000
  0.035512 -0.143519  0.079748      1.000000
 -0.248581  0.020503  0.079748      1.000000
 -0.213070  0.000000  0.079748      1.000000
 -0.177558 -0.020503  0.079748      1.000000
 -0.142046 -0.041005  0.079748      1.000000
 -0.071023 -0.041005  0.079748      1.000000
 -0.035512 -0.061508  0.079748      1.000000
  0.000000 -0.082011  0.079748      1.000000
  0.035512 -0.102513  0.079748      1.000000
  0.071023 -0.123016  0.079748      1.000000
 -0.213070  0.041005  0.079748      1.000000
 -0.177558  0.020503  0.079748      1.000000
 -0.142046  0.000000  0.079748      1.000000
 -0.106535 -0.020503  0.079748      1.000000
 -0.035512 -0.020503  0.079748      1.000000
  0.000000 -0.041005  0.079748      1.000000
  0.035512 -0.061508  0.079748      1.000000
  0.071023 -0.082011  0.079748      1.000000
  0.106535 -0.102513  0.079748      1.000000
 -0.177558  0.061508  0.079748      1.000000
 -0.142046  0.041005  0.079748      1.000000
 -0.106535  0.020503  0.079748      1.000000
 -0.071023  0.000000  0.079748      1.000000
 -0.000000 -0.000000 -0.079748      1.000000
  0.035512 -0.020503 -0.079748      1.000000
  0.071023 -0.041005 -0.079748      1.000000
  0.106535 -0.061508 -0.079748      1.000000
  0.142046 -0.082011 -0.079748      1.000000
 -0.142046  0.082011 -0.079748      1.000000
 -0.106535  0.061508 -0.079748      1.000000
 -0.071023  0.041005 -0.079748      1.000000
 -0.035512  0.020503 -0.079748      1.000000
  0.035512  0.020503 -0.079748      1.000000
  0.071023 -0.000000 -0.079748      1.000000
  0.106535 -0.020503 -0.079748      1.000000
  0.142046 -0.041005 -0.079748      1.000000
  0.177558 -0.061508 -0.079748      1.000000
 -0.106535  0.102513 -0.079748      1.000000
 -0.071023  0.082011 -0.079748      1.000000
 -0.035512  0.061508 -0.079748      1.000000
 -0.000000  0.041005 -0.079748      1.000000
  0.071023  0.041005 -0.079748      1.000000
  0.106535  0.020503 -0.079748      1.000000
  0.142046 -0.000000 -0.079748      1.000000
  0.177558 -0.020503 -0.079748      1.000000
  0.213070 -0.041005 -0.079748      1.000000
 -0.071023  0.123016 -0.079748      1.000000
 -0.035512  0.102513 -0.079748      1.000000
 -0.000000  0.082011 -0.079748      1.000000
  0.035512  0.061508 -0.079748      1.000000
  0.106535  0.061508 -0.079748      1.000000
  0.142046  0.041005 -0.079748      1.000000
  0.177558  0.020503 -0.079748      1.000000
  0.213070 -0.000000 -0.079748      1.000000
  0.248581 -0.020503 -0.079748      1.000000
 -0.035512  0.143519 -0.079748      1.000000
 -0.000000  0.123016 -0.079748      1.000000
  0.035512  0.102513 -0.079748      1.000000
  0.071023  0.082011 -0.079748      1.000000
  0.142046  0.082011 -0.079748      1.000000
  0.177558  0.061508 -0.079748      1.000000
  0.213070  0.041005 -0.079748      1.000000
  0.248581  0.020503 -0.079748      1.000000
  0.284093 -0.000000 -0.079748      1.000000
 -0.000000  0.164021 -0.079748      1.000000
  0.035512  0.143519 -0.079748      1.000000
  0.071023  0.123016 -0.079748      1.000000
  0.106535  0.102513 -0.079748      1.000000
 -0.142046 -0.082011 -0.079748      1.000000
 -0.106535 -0.102513 -0.079748      1.000000
 -0.071023 -0.123016 -0.079748      1.000000
 -0.035512 -0.143519 -0.079748      1.000000
  0.000000 -0.164021 -0.079748      1.000000
 -0.284093  0.000000 -0.079748      1.000000
 -0.248581 -0.020503 -0.079748      1.000000
 -0.213070 -0.041005 -0.079748      1.000000
 -0.177558 -0.061508 -0.079748      1.000000
 -0.106535 -0.061508 -0.079748      1.000000
 -0.071023 -0.082011 -0.079748      1.000000
 -0.035512 -0.102513 -0.079748      1.000000
  0.000000 -0.123016 -0.079748      1.000000
  0.035512 -0.143519 -0.079748      1.000000
 -0.248581  0.020503 -0.079748      1.000000
 -0.213070  0.000000 -0.079748      1.000000
 -0.177558 -0.020503 -0.079748      1.000000
 -0.142046 -0.041005 -0.079748      1.000000
 -0.071023 -0.041005 -0.079748      1.000000
 -0.035512 -0.061508 -0.079748      1.000000
  0.000000 -0.082011 -0.079748      1.000000
  0.035512 -0.102513 -0.079748      1.000000
  0.071023 -0.123016 -0.079748      1.000000
 -0.213070  0.041005 -0.079748      1.000000
 -0.177558  0.020503 -0.079748      1.000000
 -0.142046  0.000000 -0.079748      1.000000
 -0.106535 -0.020503 -0.079748      1.000000
 -0.035512 -0.020503 -0.079748      1.000000
  0.000000 -0.041005 -0.079748      1.000000
  0.035512 -0.061508 -0.079748      1.000000
  0.071023 -0.082011 -0.079748      1.000000
  0.106535 -0.102513 -0.079748      1.000000
 -0.177558  0.061508 -0.079748      1.000000
 -0.142046  0.041005 -0.079748      1.000000
 -0.106535  0.020503 -0.079748      1.000000
 -0.071023  0.000000 -0.079748      1.000000
 -0.000000 -0.000000 -0.039874      1.000000
  0.035512 -0.020503 -0.039874      1.000000
  0.071023 -0.041005 -0.039874      1.000000
  0.106535 -0.061508 -0.039874      1.000000
  0.142046 -0.082011 -0.039874      1.000000
 -0.142046  0.082011 -0.039874      1.000000
 -0.106535  0.061508 -0.039874      1.000000
 -0.071023  0.041005 -0.039874      1.000000
 -0.035512  0.020503 -0.039874      1.000000
  0.035512  0.020503 -0.039874      1.000000
  0.071023 -0.000000 -0.039874      1.000000
  0.106535 -0.020503 -0.039874      1.000000
  0.142046 -0.041005 -0.039874      1.000000
  0.177558 -0.061508 -0.039874      1.000000
 -0.106535  0.102513 -0.039874      1.000000
 -0.071023  0.082011 -0.039874      1.000000
 -0.035512  0.061508 -0.039874      1.000000
 -0.000000  0.041005 -0.039874      1.000000
  0.071023  0.041005 -0.039874      1.000000
  0.106535  0.020503 -0.039874      1.000000
  0.142046 -0.000000 -0.039874      1.000000
  0.177558 -0.020503 -0.039874      1.000000
  0.213070 -0.041005 -0.039874      1.000000
 -0.071023  0.123016 -0.039874      1.000000
 -0.035512  0.102513 -0.039874      1.000000
 -0.000000  0.082011 -0.039874      1.000000
  0.035512  0.061508 -0.039874      1.000000
  0.106535  0.061508 -0.039874      1.000000
  0.142046  0.041005 -0.039874      1.000000
  0.177558  0.020503 -0.039874      1.000000
  0.213070 -0.000000 -0.039874      1.000000
  0.248581 -0.020503 -0.039874      1.000000
 -0.035512  0.143519 -0.039874      1.000000
 -0.000000  0.123016 -0.039874      1.000000
  0.035512  0.102513 -0.039874      1.000000
  0.071023  0.082011 -0.039874      1.000000
  0.142046  0.082011 -0.039874      1.000000
  0.177558  0.061508 -0.039874      1.000000
  0.213070  0.041005 -0.039874      1.000000
  0.248581  0.020503 -0.039874      1.000000
  0.284093 -0.000000 -0.039874      1.000000
 -0.000000  0.164021 -0.039874      1.000000
  0.035512  0.143519 -0.039874      1.000000
  0.071023  0.123016 -0.039874      1.000000
  0.106535  0.102513 -0.039874      1.000000
 -0.142046 -0.082011 -0.039874      1.000000
 -0.106535 -0.102513 -0.039874      1.000000
 -0.071023 -0.123016 -0.039874      1.000000
 -0.035512 -0.143519 -0.039874      1.000000
  0.000000 -0.164021 -0.039874      1.000000
 -0.284093  0.000000 -0.039874      1.000000
 -0.248581 -0.020503 -0.039874      1.000000
 -0.213070 -0.041005 -0.039874      1.000000
 -0.177558 -0.061508 -0.039874      1.000000
 -0.106535 -0.061508 -0.039874      1.000000
 -0.071023 -0.082011 -0.039874      1.000000
 -0.035512 -0.102513 -0.039874      1.000000
  0.000000 -0.123016 -0.039874      1.000000
  0.035512 -0.143519 -0.039874      1.000000
 -0.248581  0.020503 -0.039874      1.000000
 -0.213070  0.000000 -0.039874      1.000000
 -0.177558 -0.020503 -0.039874      1.000000
 -0.142046 -0.041005 -0.039874      1.000000
 -0.071023 -0.041005 -0.039874      1.000000
 -0.035512 -0.061508 -0.039874      1.000000
  0.000000 -0.082011 -0.039874      1.000000
  0.035512 -0.102513 -0.039874      1.000000
  0.071023 -0.123016 -0.039874      1.000000
 -0.213070  0.041005 -0.039874      1.000000
 -0.177558  0.020503 -0.039874      1.000000
 -0.142046  0.000000 -0.039874      1.000000
 -0.106535 -0.020503 -0.039874      1.000000
 -0.035512 -0.020503 -0.039874      1.000000
  0.000000 -0.041005 -0.039874      1.000000
  0.035512 -0.061508 -0.039874      1.000000
  0.071023 -0.082011 -0.039874      1.000000
  0.106535 -0.102513 -0.039874      1.000000
 -0.177558  0.061508 -0.039874      1.000000
 -0.142046  0.041005 -0.039874      1.000000
 -0.106535  0.020503 -0.039874      1.000000
 -0.071023  0.000000 -0.039874      1.000000
 


--------------------------------------------------------------------------------------------------------




 Dimension of arrays:
   k-points           NKPTS =    405   k-points in BZ     NKDIM =    405   number of bands    NBANDS=     16
   number of dos      NEDOS =   4000   number of ions     NIONS =      4
   non local maximal  LDIM  =      4   non local SUM 2l+1 LMDIM =      8
   total plane-waves  NPLWV =  23040
   max r-space proj   IRMAX =   6326   max aug-charges    IRDMAX=  21284
   dimension x,y,z NGX =    24 NGY =   24 NGZ =   40
   dimension x,y,z NGXF=    48 NGYF=   48 NGZF=   80
   support grid    NGXF=    48 NGYF=   48 NGZF=   80
   ions per type =               2   2
   NGX,Y,Z   is equivalent  to a cutoff of  12.75, 12.75, 13.26 a.u.
   NGXF,Y,Z  is equivalent  to a cutoff of  25.50, 25.50, 26.52 a.u.

 SYSTEM =  unknown system                          
 POSCAR =  Al2 N2                                  

 Startparameter for this run:
   NWRITE =      2    write-flag & timer
   PREC   = accura    normal or accurate (medium, high low for compatibility)
   ISTART =      0    job   : 0-new  1-cont  2-samecut
   ICHARG =      2    charge: 1-file 2-atom 10-const
   ISPIN  =      1    spin polarized calculation?
   LNONCOLLINEAR =      F non collinear calculations
   LSORBIT =      F    spin-orbit coupling
   INIWAV =      1    electr: 0-lowe 1-rand  2-diag
   LASPH  =      T    aspherical Exc in radial PAW
   METAGGA=      F    non-selfconsistent MetaGGA calc.

 Electronic Relaxation 1
   ENCUT  =  520.0 eV  38.22 Ry    6.18 a.u.   5.82  5.82  9.33*2*pi/ulx,y,z
   ENINI  =  520.0     initial cutoff
   ENAUG  = 1040.0 eV  augmentation charge cutoff
   NELM   =    100;   NELMIN=  2; NELMDL= -5     # of ELM steps 
   EDIFF  = 0.1E-05   stopping-criterion for ELM
   LREAL  =      T    real-space projection
   NLSPLINE    = F    spline interpolate recip. space projectors
   LCOMPAT=      F    compatible to vasp.4.4
   GGA_COMPAT  = T    GGA compatible to vasp.4.4-vasp.4.6
   LMAXPAW     = -100 max onsite density
   LMAXMIX     =    2 max onsite mixed and CHGCAR
   VOSKOWN=      0    Vosko Wilk Nusair interpolation
   ROPT   =   -0.00025  -0.00025
 Ionic relaxation
   EDIFFG = -.3E-01   stopping-criterion for IOM
   NSW    =      0    number of steps for IOM
   NBLOCK =      1;   KBLOCK =      1    inner block; outer block 
   IBRION =     -1    ionic relax: 0-MD 1-quasi-New 2-CG
   NFREE  =      1    steps in history (QN), initial steepest desc. (CG)
   ISIF   =      3    stress and relaxation
   IWAVPR =     10    prediction:  0-non 1-charg 2-wave 3-comb
   ISYM   =     -1    0-nonsym 1-usesym 2-fastsym
   LCORR  =      T    Harris-Foulkes like correction to forces

   POTIM  = 0.5000    time-step for ionic-motion
   TEIN   =    0.0    initial temperature
   TEBEG  =    0.0;   TEEND  =   0.0 temperature during run
   SMASS  =  -3.00    Nose mass-parameter (am)
   estimated Nose-frequenzy (Omega)   =  0.10E-29 period in steps =****** mass=  -0.224E-27a.u.
   SCALEE = 1.0000    scale energy and forces
   NPACO  =    256;   APACO  = 16.0  distance and # of slots for P.C.
   PSTRESS=    0.0 pullay stress

  Mass of Ions in am
   POMASS =  26.98 14.00
  Ionic Valenz
   ZVAL   =   3.00  5.00
  Atomic Wigner-Seitz radii
   RWIGS  =  -1.00 -1.00
  virtual crystal weights 
   VCA    =   1.00  1.00
   NELECT =      16.0000    total number of electrons
   NUPDOWN=      -1.0000    fix difference up-down

 DOS related values:
   EMIN   =  10.00;   EMAX   =-10.00  energy-range for DOS
   EFERMI =   0.00
   ISMEAR =     0;   SIGMA  =   0.01  broadening in eV -4-tet -1-fermi 0-gaus

 Electronic relaxation 2 (details)
   IALGO  =     68    algorithm
   LDIAG  =      T    sub-space diagonalisation (order eigenvalues)
   LSUBROT=      F    optimize rotation matrix (better conditioning)
   TURBO    =      0    0=normal 1=particle mesh
   IRESTART =      0    0=no restart 2=restart with 2 vectors
   NREBOOT  =      0    no. of reboots
   NMIN     =      0    reboot dimension
   EREF     =   0.00    reference energy to select bands
   IMIX   =      4    mixing-type and parameters
     AMIX     =   0.40;   BMIX     =  1.00
     AMIX_MAG =   1.60;   BMIX_MAG =  1.00
     AMIN     =   0.10
     WC   =   100.;   INIMIX=   1;  MIXPRE=   1;  MAXMIX= -45

 Intra band minimization:
   WEIMIN = 0.0000     energy-eigenvalue tresh-hold
   EBREAK =  0.16E-07  absolut break condition
   DEPER  =   0.30     relativ break condition  

   TIME   =   0.40     timestep for ELM

  volume/ion in A,a.u.               =      10.63        71.74
  Fermi-wavevector in a.u.,A,eV,Ry     =   1.181859  2.233390 19.004499  1.396791
  Thomas-Fermi vector in A             =   2.318125
 
 Write flags
   LWAVE        =      T    write WAVECAR
   LDOWNSAMPLE  =      F    k-point downsampling of WAVECAR
   LCHARG       =      T    write CHGCAR
   LVTOT        =      F    write LOCPOT, total local potential
   LVHAR        =      F    write LOCPOT, Hartree potential only
   LELF         =      F    write electronic localiz. function (ELF)
   LORBIT       =     11    0 simple, 1 ext, 2 COOP (PROOUT), +10 PAW based schemes


 Dipole corrections
   LMONO  =      F    monopole corrections only (constant potential shift)
   LDIPOL =      F    correct potential (dipole corrections)
   IDIPOL =      0    1-x, 2-y, 3-z, 4-all directions 
   EPSILON=  1.0000000 bulk dielectric constant

 Exchange correlation treatment:
   GGA     =    PE    GGA type
   LEXCH   =     8    internal setting for exchange type
   VOSKOWN=      0    Vosko Wilk Nusair interpolation
   LHFCALC =     F    Hartree Fock is set to
   LHFONE  =     F    Hartree Fock one center treatment
   AEXX    =    0.0000 exact exchange contribution

 Linear response parameters
   LEPSILON=     F    determine dielectric tensor
   LRPA    =     F    only Hartree local field effects (RPA)
   LNABLA  =     F    use nabla operator in PAW spheres
   LVEL    =     F    velocity operator in full k-point grid
   LINTERFAST=   F  fast interpolation
   KINTER  =     0    interpolate to denser k-point grid
   CSHIFT  =0.1000    complex shift for real part using Kramers Kronig
   OMEGAMAX=  -1.0    maximum frequency
   DEG_THRESHOLD= 0.2000000E-02 threshold for treating states as degnerate
   RTIME   =   -0.100 relaxation time in fs
  (WPLASMAI=    0.000 imaginary part of plasma frequency in eV, 0.658/RTIME)
   DFIELD  = 0.0000000 0.0000000 0.0000000 field for delta impulse in time
 
 Orbital magnetization related:
   ORBITALMAG=     F  switch on orbital magnetization
   LCHIMAG   =     F  perturbation theory with respect to B field
   DQ        =  0.001000  dq finite difference perturbation B field
   LLRAUG    =     F  two centre corrections for induced B field



--------------------------------------------------------------------------------------------------------


 Static calculation
 charge density and potential will be updated during run
 non-spin polarized calculation
 RMM-DIIS sequential band-by-band and
  variant of blocked Davidson during initial phase
 perform sub-space diagonalisation
    before iterative eigenvector-optimisation
 modified Broyden-mixing scheme, WC =      100.0
 initial mixing is a Kerker type mixing with AMIX =  0.4000 and BMIX =      1.0000
 Hartree-type preconditioning will be used
 using additional bands            8
 real space projection scheme for non local part
 use partial core corrections
 calculate Harris-corrections to forces 
   (improved forces if not selfconsistent)
 use gradient corrections 
 use of overlap-Matrix (Vanderbilt PP)
 Gauss-broadening in eV      SIGMA  =   0.01


--------------------------------------------------------------------------------------------------------


  energy-cutoff  :      520.00
  volume of cell :       42.53
      direct lattice vectors                 reciprocal lattice vectors
     1.564432972 -2.709677324  0.000000005     0.319604614 -0.184523817 -0.000000000
     1.564433005  2.709677342 -0.000000009     0.319604612  0.184523813  0.000000001
    -0.000000006 -0.000000011  5.015828303     0.000000000  0.000000001  0.199368866

  length of vectors
     3.128865885  3.128865917  5.015828303     0.369047624  0.369047620  0.199368866


 
 k-points in units of 2pi/SCALE and weight: Fully automatic kpoint scheme           
   0.00000000  0.00000000  0.00000000       0.002
   0.03551162 -0.02050265 -0.00000000       0.002
   0.07102325 -0.04100529 -0.00000000       0.002
   0.10653487 -0.06150794 -0.00000000       0.002
   0.14204650 -0.08201059 -0.00000000       0.002
  -0.14204650  0.08201059  0.00000000       0.002
  -0.10653487  0.06150794  0.00000000       0.002
  -0.07102325  0.04100529  0.00000000       0.002
  -0.03551162  0.02050265  0.00000000       0.002
   0.03551162  0.02050265  0.00000000       0.002
   0.07102325 -0.00000000  0.00000000       0.002
   0.10653487 -0.02050265  0.00000000       0.002
   0.14204649 -0.04100529  0.00000000       0.002
   0.17755812 -0.06150794  0.00000000       0.002
  -0.10653487  0.10251323  0.00000000       0.002
  -0.07102325  0.08201059  0.00000000       0.002
  -0.03551162  0.06150794  0.00000000       0.002
  -0.00000000  0.04100529  0.00000000       0.002
   0.07102325  0.04100529  0.00000000       0.002
   0.10653487  0.02050265  0.00000000       0.002
   0.14204649 -0.00000000  0.00000000       0.002
   0.17755812 -0.02050265  0.00000000       0.002
   0.21306974 -0.04100529  0.00000000       0.002
  -0.07102325  0.12301588  0.00000000       0.002
  -0.03551162  0.10251323  0.00000000       0.002
  -0.00000000  0.08201058  0.00000000       0.002
   0.03551162  0.06150794  0.00000000       0.002
   0.10653487  0.06150794  0.00000000       0.002
   0.14204649  0.04100529  0.00000000       0.002
   0.17755812  0.02050265  0.00000000       0.002
   0.21306974 -0.00000000  0.00000000       0.002
   0.24858137 -0.02050265  0.00000000       0.002
  -0.03551162  0.14351852  0.00000000       0.002
  -0.00000000  0.12301588  0.00000000       0.002
   0.03551162  0.10251323  0.00000000       0.002
   0.07102325  0.08201058  0.00000000       0.002
   0.14204649  0.08201058  0.00000000       0.002
   0.17755812  0.06150794  0.00000000       0.002
   0.21306974  0.04100529  0.00000000       0.002
   0.24858137  0.02050264  0.00000000       0.002
   0.28409299 -0.00000000  0.00000000       0.002
  -0.00000000  0.16402117  0.00000000       0.002
   0.03551162  0.14351852  0.00000000       0.002
   0.07102325  0.12301588  0.00000000       0.002
   0.10653487  0.10251323  0.00000000       0.002
  -0.14204649 -0.08201058 -0.00000000       0.002
  -0.10653487 -0.10251323 -0.00000000       0.002
  -0.07102325 -0.12301588 -0.00000000       0.002
  -0.03551162 -0.14351852 -0.00000000       0.002
   0.00000000 -0.16402117 -0.00000000       0.002
  -0.28409299  0.00000000 -0.00000000       0.002
  -0.24858137 -0.02050264 -0.00000000       0.002
  -0.21306974 -0.04100529 -0.00000000       0.002
  -0.17755812 -0.06150794 -0.00000000       0.002
  -0.10653487 -0.06150794 -0.00000000       0.002
  -0.07102325 -0.08201058 -0.00000000       0.002
  -0.03551162 -0.10251323 -0.00000000       0.002
   0.00000000 -0.12301588 -0.00000000       0.002
   0.03551162 -0.14351852 -0.00000000       0.002
  -0.24858137  0.02050265 -0.00000000       0.002
  -0.21306974  0.00000000 -0.00000000       0.002
  -0.17755812 -0.02050265 -0.00000000       0.002
  -0.14204649 -0.04100529 -0.00000000       0.002
  -0.07102325 -0.04100529 -0.00000000       0.002
  -0.03551162 -0.06150794 -0.00000000       0.002
   0.00000000 -0.08201058 -0.00000000       0.002
   0.03551162 -0.10251323 -0.00000000       0.002
   0.07102325 -0.12301588 -0.00000000       0.002
  -0.21306974  0.04100529 -0.00000000       0.002
  -0.17755812  0.02050265 -0.00000000       0.002
  -0.14204649  0.00000000 -0.00000000       0.002
  -0.10653487 -0.02050265 -0.00000000       0.002
  -0.03551162 -0.02050265 -0.00000000       0.002
   0.00000000 -0.04100529 -0.00000000       0.002
   0.03551162 -0.06150794 -0.00000000       0.002
   0.07102325 -0.08201059 -0.00000000       0.002
   0.10653487 -0.10251323 -0.00000000       0.002
  -0.17755812  0.06150794 -0.00000000       0.002
  -0.14204649  0.04100529 -0.00000000       0.002
  -0.10653487  0.02050265 -0.00000000       0.002
  -0.07102325  0.00000000 -0.00000000       0.002
   0.00000000  0.00000000  0.03987377       0.002
   0.03551162 -0.02050265  0.03987377       0.002
   0.07102325 -0.04100529  0.03987377       0.002
   0.10653487 -0.06150794  0.03987377       0.002
   0.14204650 -0.08201059  0.03987377       0.002
  -0.14204650  0.08201059  0.03987377       0.002
  -0.10653487  0.06150794  0.03987377       0.002
  -0.07102325  0.04100529  0.03987377       0.002
  -0.03551162  0.02050265  0.03987377       0.002
   0.03551162  0.02050265  0.03987377       0.002
   0.07102325 -0.00000000  0.03987377       0.002
   0.10653487 -0.02050265  0.03987377       0.002
   0.14204650 -0.04100529  0.03987377       0.002
   0.17755812 -0.06150794  0.03987377       0.002
  -0.10653487  0.10251323  0.03987377       0.002
  -0.07102325  0.08201059  0.03987377       0.002
  -0.03551162  0.06150794  0.03987377       0.002
  -0.00000000  0.04100529  0.03987377       0.002
   0.07102325  0.04100529  0.03987377       0.002
   0.10653487  0.02050265  0.03987377       0.002
   0.14204649 -0.00000000  0.03987377       0.002
   0.17755812 -0.02050265  0.03987377       0.002
   0.21306974 -0.04100529  0.03987377       0.002
  -0.07102325  0.12301588  0.03987377       0.002
  -0.03551162  0.10251323  0.03987377       0.002
  -0.00000000  0.08201058  0.03987377       0.002
   0.03551162  0.06150794  0.03987377       0.002
   0.10653487  0.06150794  0.03987377       0.002
   0.14204649  0.04100529  0.03987377       0.002
   0.17755812  0.02050265  0.03987377       0.002
   0.21306974 -0.00000000  0.03987377       0.002
   0.24858137 -0.02050265  0.03987377       0.002
  -0.03551162  0.14351852  0.03987377       0.002
  -0.00000000  0.12301588  0.03987377       0.002
   0.03551162  0.10251323  0.03987377       0.002
   0.07102325  0.08201058  0.03987377       0.002
   0.14204649  0.08201058  0.03987377       0.002
   0.17755812  0.06150794  0.03987377       0.002
   0.21306974  0.04100529  0.03987377       0.002
   0.24858137  0.02050264  0.03987377       0.002
   0.28409299 -0.00000000  0.03987377       0.002
  -0.00000000  0.16402117  0.03987377       0.002
   0.03551162  0.14351852  0.03987377       0.002
   0.07102325  0.12301588  0.03987377       0.002
   0.10653487  0.10251323  0.03987377       0.002
  -0.14204649 -0.08201058  0.03987377       0.002
  -0.10653487 -0.10251323  0.03987377       0.002
  -0.07102325 -0.12301588  0.03987377       0.002
  -0.03551162 -0.14351852  0.03987377       0.002
   0.00000000 -0.16402117  0.03987377       0.002
  -0.28409299  0.00000000  0.03987377       0.002
  -0.24858137 -0.02050264  0.03987377       0.002
  -0.21306974 -0.04100529  0.03987377       0.002
  -0.17755812 -0.06150794  0.03987377       0.002
  -0.10653487 -0.06150794  0.03987377       0.002
  -0.07102325 -0.08201058  0.03987377       0.002
  -0.03551162 -0.10251323  0.03987377       0.002
   0.00000000 -0.12301588  0.03987377       0.002
   0.03551162 -0.14351852  0.03987377       0.002
  -0.24858137  0.02050265  0.03987377       0.002
  -0.21306974  0.00000000  0.03987377       0.002
  -0.17755812 -0.02050264  0.03987377       0.002
  -0.14204649 -0.04100529  0.03987377       0.002
  -0.07102325 -0.04100529  0.03987377       0.002
  -0.03551162 -0.06150794  0.03987377       0.002
   0.00000000 -0.08201058  0.03987377       0.002
   0.03551162 -0.10251323  0.03987377       0.002
   0.07102325 -0.12301588  0.03987377       0.002
  -0.21306974  0.04100529  0.03987377       0.002
  -0.17755812  0.02050265  0.03987377       0.002
  -0.14204649  0.00000000  0.03987377       0.002
  -0.10653487 -0.02050265  0.03987377       0.002
  -0.03551162 -0.02050265  0.03987377       0.002
   0.00000000 -0.04100529  0.03987377       0.002
   0.03551162 -0.06150794  0.03987377       0.002
   0.07102325 -0.08201058  0.03987377       0.002
   0.10653487 -0.10251323  0.03987377       0.002
  -0.17755812  0.06150794  0.03987377       0.002
  -0.14204649  0.04100529  0.03987377       0.002
  -0.10653487  0.02050265  0.03987377       0.002
  -0.07102325  0.00000000  0.03987377       0.002
   0.00000000  0.00000000  0.07974755       0.002
   0.03551162 -0.02050265  0.07974755       0.002
   0.07102325 -0.04100529  0.07974755       0.002
   0.10653487 -0.06150794  0.07974755       0.002
   0.14204650 -0.08201059  0.07974755       0.002
  -0.14204650  0.08201059  0.07974755       0.002
  -0.10653487  0.06150794  0.07974755       0.002
  -0.07102325  0.04100529  0.07974755       0.002
  -0.03551162  0.02050265  0.07974755       0.002
   0.03551162  0.02050265  0.07974755       0.002
   0.07102325 -0.00000000  0.07974755       0.002
   0.10653487 -0.02050265  0.07974755       0.002
   0.14204650 -0.04100529  0.07974755       0.002
   0.17755812 -0.06150794  0.07974755       0.002
  -0.10653487  0.10251323  0.07974755       0.002
  -0.07102325  0.08201059  0.07974755       0.002
  -0.03551162  0.06150794  0.07974755       0.002
  -0.00000000  0.04100529  0.07974755       0.002
   0.07102325  0.04100529  0.07974755       0.002
   0.10653487  0.02050265  0.07974755       0.002
   0.14204649 -0.00000000  0.07974755       0.002
   0.17755812 -0.02050265  0.07974755       0.002
   0.21306974 -0.04100529  0.07974755       0.002
  -0.07102325  0.12301588  0.07974755       0.002
  -0.03551162  0.10251323  0.07974755       0.002
  -0.00000000  0.08201058  0.07974755       0.002
   0.03551162  0.06150794  0.07974755       0.002
   0.10653487  0.06150794  0.07974755       0.002
   0.14204649  0.04100529  0.07974755       0.002
   0.17755812  0.02050265  0.07974755       0.002
   0.21306974 -0.00000000  0.07974755       0.002
   0.24858137 -0.02050265  0.07974755       0.002
  -0.03551162  0.14351852  0.07974755       0.002
  -0.00000000  0.12301588  0.07974755       0.002
   0.03551162  0.10251323  0.07974755       0.002
   0.07102325  0.08201058  0.07974755       0.002
   0.14204649  0.08201058  0.07974755       0.002
   0.17755812  0.06150794  0.07974755       0.002
   0.21306974  0.04100529  0.07974755       0.002
   0.24858137  0.02050264  0.07974755       0.002
   0.28409299 -0.00000000  0.07974755       0.002
  -0.00000000  0.16402117  0.07974755       0.002
   0.03551162  0.14351852  0.07974755       0.002
   0.07102325  0.12301588  0.07974755       0.002
   0.10653487  0.10251323  0.07974755       0.002
  -0.14204649 -0.08201058  0.07974755       0.002
  -0.10653487 -0.10251323  0.07974755       0.002
  -0.07102325 -0.12301588  0.07974755       0.002
  -0.03551162 -0.14351852  0.07974755       0.002
   0.00000000 -0.16402117  0.07974755       0.002
  -0.28409299  0.00000000  0.07974755       0.002
  -0.24858137 -0.02050264  0.07974755       0.002
  -0.21306974 -0.04100529  0.07974755       0.002
  -0.17755812 -0.06150794  0.07974755       0.002
  -0.10653487 -0.06150794  0.07974755       0.002
  -0.07102325 -0.08201058  0.07974755       0.002
  -0.03551162 -0.10251323  0.07974755       0.002
   0.00000000 -0.12301588  0.07974755       0.002
   0.03551162 -0.14351852  0.07974755       0.002
  -0.24858137  0.02050265  0.07974755       0.002
  -0.21306974  0.00000000  0.07974755       0.002
  -0.17755812 -0.02050264  0.07974755       0.002
  -0.14204649 -0.04100529  0.07974755       0.002
  -0.07102325 -0.04100529  0.07974755       0.002
  -0.03551162 -0.06150794  0.07974755       0.002
   0.00000000 -0.08201058  0.07974755       0.002
   0.03551162 -0.10251323  0.07974755       0.002
   0.07102325 -0.12301588  0.07974755       0.002
  -0.21306974  0.04100529  0.07974755       0.002
  -0.17755812  0.02050265  0.07974755       0.002
  -0.14204649  0.00000000  0.07974755       0.002
  -0.10653487 -0.02050265  0.07974755       0.002
  -0.03551162 -0.02050265  0.07974755       0.002
   0.00000000 -0.04100529  0.07974755       0.002
   0.03551162 -0.06150794  0.07974755       0.002
   0.07102325 -0.08201058  0.07974755       0.002
   0.10653487 -0.10251323  0.07974755       0.002
  -0.17755812  0.06150794  0.07974755       0.002
  -0.14204649  0.04100529  0.07974755       0.002
  -0.10653487  0.02050265  0.07974755       0.002
  -0.07102325  0.00000000  0.07974755       0.002
  -0.00000000 -0.00000000 -0.07974755       0.002
   0.03551162 -0.02050265 -0.07974755       0.002
   0.07102325 -0.04100529 -0.07974755       0.002
   0.10653487 -0.06150794 -0.07974755       0.002
   0.14204650 -0.08201059 -0.07974755       0.002
  -0.14204650  0.08201059 -0.07974755       0.002
  -0.10653487  0.06150794 -0.07974755       0.002
  -0.07102325  0.04100529 -0.07974755       0.002
  -0.03551162  0.02050265 -0.07974755       0.002
   0.03551162  0.02050265 -0.07974755       0.002
   0.07102325 -0.00000000 -0.07974755       0.002
   0.10653487 -0.02050265 -0.07974755       0.002
   0.14204649 -0.04100529 -0.07974755       0.002
   0.17755812 -0.06150794 -0.07974755       0.002
  -0.10653487  0.10251323 -0.07974755       0.002
  -0.07102325  0.08201058 -0.07974755       0.002
  -0.03551162  0.06150794 -0.07974755       0.002
  -0.00000000  0.04100529 -0.07974755       0.002
   0.07102325  0.04100529 -0.07974755       0.002
   0.10653487  0.02050265 -0.07974755       0.002
   0.14204649 -0.00000000 -0.07974755       0.002
   0.17755812 -0.02050265 -0.07974755       0.002
   0.21306974 -0.04100529 -0.07974755       0.002
  -0.07102325  0.12301588 -0.07974755       0.002
  -0.03551162  0.10251323 -0.07974755       0.002
  -0.00000000  0.08201058 -0.07974755       0.002
   0.03551162  0.06150794 -0.07974755       0.002
   0.10653487  0.06150794 -0.07974755       0.002
   0.14204649  0.04100529 -0.07974755       0.002
   0.17755812  0.02050264 -0.07974755       0.002
   0.21306974 -0.00000000 -0.07974755       0.002
   0.24858137 -0.02050265 -0.07974755       0.002
  -0.03551162  0.14351852 -0.07974755       0.002
  -0.00000000  0.12301588 -0.07974755       0.002
   0.03551162  0.10251323 -0.07974755       0.002
   0.07102325  0.08201058 -0.07974755       0.002
   0.14204649  0.08201058 -0.07974755       0.002
   0.17755812  0.06150794 -0.07974755       0.002
   0.21306974  0.04100529 -0.07974755       0.002
   0.24858137  0.02050264 -0.07974755       0.002
   0.28409299 -0.00000000 -0.07974755       0.002
  -0.00000000  0.16402117 -0.07974755       0.002
   0.03551162  0.14351852 -0.07974755       0.002
   0.07102325  0.12301588 -0.07974755       0.002
   0.10653487  0.10251323 -0.07974755       0.002
  -0.14204649 -0.08201058 -0.07974755       0.002
  -0.10653487 -0.10251323 -0.07974755       0.002
  -0.07102325 -0.12301588 -0.07974755       0.002
  -0.03551162 -0.14351852 -0.07974755       0.002
   0.00000000 -0.16402117 -0.07974755       0.002
  -0.28409299  0.00000000 -0.07974755       0.002
  -0.24858137 -0.02050264 -0.07974755       0.002
  -0.21306974 -0.04100529 -0.07974755       0.002
  -0.17755812 -0.06150794 -0.07974755       0.002
  -0.10653487 -0.06150794 -0.07974755       0.002
  -0.07102325 -0.08201058 -0.07974755       0.002
  -0.03551162 -0.10251323 -0.07974755       0.002
   0.00000000 -0.12301588 -0.07974755       0.002
   0.03551162 -0.14351852 -0.07974755       0.002
  -0.24858137  0.02050265 -0.07974755       0.002
  -0.21306974  0.00000000 -0.07974755       0.002
  -0.17755812 -0.02050265 -0.07974755       0.002
  -0.14204649 -0.04100529 -0.07974755       0.002
  -0.07102325 -0.04100529 -0.07974755       0.002
  -0.03551162 -0.06150794 -0.07974755       0.002
   0.00000000 -0.08201058 -0.07974755       0.002
   0.03551162 -0.10251323 -0.07974755       0.002
   0.07102325 -0.12301588 -0.07974755       0.002
  -0.21306974  0.04100529 -0.07974755       0.002
  -0.17755812  0.02050265 -0.07974755       0.002
  -0.14204649  0.00000000 -0.07974755       0.002
  -0.10653487 -0.02050265 -0.07974755       0.002
  -0.03551162 -0.02050265 -0.07974755       0.002
   0.00000000 -0.04100529 -0.07974755       0.002
   0.03551162 -0.06150794 -0.07974755       0.002
   0.07102325 -0.08201059 -0.07974755       0.002
   0.10653487 -0.10251323 -0.07974755       0.002
  -0.17755812  0.06150794 -0.07974755       0.002
  -0.14204650  0.04100529 -0.07974755       0.002
  -0.10653487  0.02050265 -0.07974755       0.002
  -0.07102325  0.00000000 -0.07974755       0.002
  -0.00000000 -0.00000000 -0.03987377       0.002
   0.03551162 -0.02050265 -0.03987377       0.002
   0.07102325 -0.04100529 -0.03987377       0.002
   0.10653487 -0.06150794 -0.03987377       0.002
   0.14204650 -0.08201059 -0.03987377       0.002
  -0.14204650  0.08201059 -0.03987377       0.002
  -0.10653487  0.06150794 -0.03987377       0.002
  -0.07102325  0.04100529 -0.03987377       0.002
  -0.03551162  0.02050265 -0.03987377       0.002
   0.03551162  0.02050265 -0.03987377       0.002
   0.07102325 -0.00000000 -0.03987377       0.002
   0.10653487 -0.02050265 -0.03987377       0.002
   0.14204649 -0.04100529 -0.03987377       0.002
   0.17755812 -0.06150794 -0.03987377       0.002
  -0.10653487  0.10251323 -0.03987377       0.002
  -0.07102325  0.08201058 -0.03987377       0.002
  -0.03551162  0.06150794 -0.03987377       0.002
  -0.00000000  0.04100529 -0.03987377       0.002
   0.07102325  0.04100529 -0.03987377       0.002
   0.10653487  0.02050265 -0.03987377       0.002
   0.14204649 -0.00000000 -0.03987377       0.002
   0.17755812 -0.02050265 -0.03987377       0.002
   0.21306974 -0.04100529 -0.03987377       0.002
  -0.07102325  0.12301588 -0.03987377       0.002
  -0.03551162  0.10251323 -0.03987377       0.002
  -0.00000000  0.08201058 -0.03987377       0.002
   0.03551162  0.06150794 -0.03987377       0.002
   0.10653487  0.06150794 -0.03987377       0.002
   0.14204649  0.04100529 -0.03987377       0.002
   0.17755812  0.02050264 -0.03987377       0.002
   0.21306974 -0.00000000 -0.03987377       0.002
   0.24858137 -0.02050265 -0.03987377       0.002
  -0.03551162  0.14351852 -0.03987377       0.002
  -0.00000000  0.12301588 -0.03987377       0.002
   0.03551162  0.10251323 -0.03987377       0.002
   0.07102325  0.08201058 -0.03987377       0.002
   0.14204649  0.08201058 -0.03987377       0.002
   0.17755812  0.06150794 -0.03987377       0.002
   0.21306974  0.04100529 -0.03987377       0.002
   0.24858137  0.02050264 -0.03987377       0.002
   0.28409299 -0.00000000 -0.03987377       0.002
  -0.00000000  0.16402117 -0.03987377       0.002
   0.03551162  0.14351852 -0.03987377       0.002
   0.07102325  0.12301588 -0.03987377       0.002
   0.10653487  0.10251323 -0.03987377       0.002
  -0.14204649 -0.08201058 -0.03987377       0.002
  -0.10653487 -0.10251323 -0.03987377       0.002
  -0.07102325 -0.12301588 -0.03987377       0.002
  -0.03551162 -0.14351852 -0.03987377       0.002
   0.00000000 -0.16402117 -0.03987377       0.002
  -0.28409299  0.00000000 -0.03987377       0.002
  -0.24858137 -0.02050264 -0.03987377       0.002
  -0.21306974 -0.04100529 -0.03987377       0.002
  -0.17755812 -0.06150794 -0.03987377       0.002
  -0.10653487 -0.06150794 -0.03987377       0.002
  -0.07102325 -0.08201058 -0.03987377       0.002
  -0.03551162 -0.10251323 -0.03987377       0.002
   0.00000000 -0.12301588 -0.03987377       0.002
   0.03551162 -0.14351852 -0.03987377       0.002
  -0.24858137  0.02050265 -0.03987377       0.002
  -0.21306974  0.00000000 -0.03987377       0.002
  -0.17755812 -0.02050265 -0.03987377       0.002
  -0.14204649 -0.04100529 -0.03987377       0.002
  -0.07102325 -0.04100529 -0.03987377       0.002
  -0.03551162 -0.06150794 -0.03987377       0.002
   0.00000000 -0.08201058 -0.03987377       0.002
   0.03551162 -0.10251323 -0.03987377       0.002
   0.07102325 -0.12301588 -0.03987377       0.002
  -0.21306974  0.04100529 -0.03987377       0.002
  -0.17755812  0.02050265 -0.03987377       0.002
  -0.14204649  0.00000000 -0.03987377       0.002
  -0.10653487 -0.02050265 -0.03987377       0.002
  -0.03551162 -0.02050265 -0.03987377       0.002
   0.00000000 -0.04100529 -0.03987377       0.002
   0.03551162 -0.06150794 -0.03987377       0.002
   0.07102325 -0.08201059 -0.03987377       0.002
   0.10653487 -0.10251323 -0.03987377       0.002
  -0.17755812  0.06150794 -0.03987377       0.002
  -0.14204650  0.04100529 -0.03987377       0.002
  -0.10653487  0.02050265 -0.03987377       0.002
  -0.07102325  0.00000000 -0.03987377       0.002
 
 k-points in reciprocal lattice and weights: Fully automatic kpoint scheme           
   0.00000000  0.00000000  0.00000000       0.002
   0.11111111  0.00000000  0.00000000       0.002
   0.22222222  0.00000000  0.00000000       0.002
   0.33333333  0.00000000  0.00000000       0.002
   0.44444444  0.00000000  0.00000000       0.002
  -0.44444444 -0.00000000 -0.00000000       0.002
  -0.33333333 -0.00000000 -0.00000000       0.002
  -0.22222222 -0.00000000 -0.00000000       0.002
  -0.11111111 -0.00000000  0.00000000       0.002
   0.00000000  0.11111111 -0.00000000       0.002
   0.11111111  0.11111111 -0.00000000       0.002
   0.22222222  0.11111111  0.00000000       0.002
   0.33333333  0.11111111 -0.00000000       0.002
   0.44444444  0.11111111  0.00000000       0.002
  -0.44444444  0.11111111 -0.00000000       0.002
  -0.33333333  0.11111111  0.00000000       0.002
  -0.22222222  0.11111111 -0.00000000       0.002
  -0.11111111  0.11111111  0.00000000       0.002
  -0.00000000  0.22222222  0.00000000       0.002
   0.11111111  0.22222222  0.00000000       0.002
   0.22222222  0.22222222  0.00000000       0.002
   0.33333333  0.22222222 -0.00000000       0.002
   0.44444444  0.22222222  0.00000000       0.002
  -0.44444444  0.22222222 -0.00000000       0.002
  -0.33333333  0.22222222  0.00000000       0.002
  -0.22222222  0.22222222  0.00000000       0.002
  -0.11111111  0.22222222  0.00000000       0.002
   0.00000000  0.33333333  0.00000000       0.002
   0.11111111  0.33333333  0.00000000       0.002
   0.22222222  0.33333333  0.00000000       0.002
   0.33333333  0.33333333  0.00000000       0.002
   0.44444444  0.33333333  0.00000000       0.002
  -0.44444444  0.33333333  0.00000000       0.002
  -0.33333333  0.33333333 -0.00000000       0.002
  -0.22222222  0.33333333 -0.00000000       0.002
  -0.11111111  0.33333333  0.00000000       0.002
  -0.00000000  0.44444444  0.00000000       0.002
   0.11111111  0.44444444 -0.00000000       0.002
   0.22222222  0.44444444  0.00000000       0.002
   0.33333333  0.44444444  0.00000000       0.002
   0.44444444  0.44444444  0.00000000       0.002
  -0.44444444  0.44444444  0.00000000       0.002
  -0.33333333  0.44444444 -0.00000000       0.002
  -0.22222222  0.44444444  0.00000000       0.002
  -0.11111111  0.44444444  0.00000000       0.002
   0.00000000 -0.44444444 -0.00000000       0.002
   0.11111111 -0.44444444  0.00000000       0.002
   0.22222222 -0.44444444  0.00000000       0.002
   0.33333333 -0.44444444  0.00000000       0.002
   0.44444444 -0.44444444 -0.00000000       0.002
  -0.44444444 -0.44444444 -0.00000000       0.002
  -0.33333333 -0.44444444 -0.00000000       0.002
  -0.22222222 -0.44444444 -0.00000000       0.002
[...]
     12      15.8102      0.00000
     13      16.6951      0.00000
     14      17.6680      0.00000
     15      18.2996      0.00000
     16      20.3489      0.00000

 k-point   388 :       0.0000   -0.2222   -0.2000
  band No.  band energies     occupation 
      1      -8.3749      2.00000
      2      -6.9364      2.00000
      3       1.0836      2.00000
      4       3.0870      2.00000
      5       3.6076      2.00000
      6       4.6247      2.00000
      7       5.4921      2.00000
      8       5.4927      2.00000
      9      11.8775      0.00000
     10      13.6182      0.00000
     11      14.3564      0.00000
     12      15.7042      0.00000
     13      17.2186      0.00000
     14      18.0035      0.00000
     15      18.2163      0.00000
     16      18.9537      0.00000

 k-point   389 :       0.1111   -0.2222   -0.2000
  band No.  band energies     occupation 
      1      -8.5116      2.00000
      2      -7.0146      2.00000
      3       0.9834      2.00000
      4       3.6271      2.00000
      5       3.7881      2.00000
      6       4.7278      2.00000
      7       5.4000      2.00000
      8       5.5949      2.00000
      9      11.8515      0.00000
     10      13.9369      0.00000
     11      14.5802      0.00000
     12      15.2518      0.00000
     13      17.3713      0.00000
     14      17.9914      0.00000
     15      18.2464      0.00000
     16      19.1428      0.00000

 k-point   390 :       0.2222   -0.2222   -0.2000
  band No.  band energies     occupation 
      1      -8.3749      2.00000
      2      -6.9364      2.00000
      3       1.0836      2.00000
      4       3.0870      2.00000
      5       3.6076      2.00000
      6       4.6247      2.00000
      7       5.4921      2.00000
      8       5.4927      2.00000
      9      11.8775      0.00000
     10      13.6182      0.00000
     11      14.3564      0.00000
     12      15.7042      0.00000
     13      17.2186      0.00000
     14      18.0035      0.00000
     15      18.2163      0.00000
     16      18.9537      0.00000

 k-point   391 :       0.3333   -0.2222   -0.2000
  band No.  band energies     occupation 
      1      -7.9927      2.00000
      2      -6.7415      2.00000
      3       1.2802      2.00000
      4       2.4080      2.00000
      5       3.0317      2.00000
      6       4.1542      2.00000
      7       5.0241      2.00000
      8       5.4359      2.00000
      9      12.2623      0.00000
     10      13.2435      0.00000
     11      14.3178      0.00000
     12      15.6311      0.00000
     13      16.8324      0.00000
     14      17.6865      0.00000
     15      18.1181      0.00000
     16      19.7426      0.00000

 k-point   392 :       0.4444   -0.2222   -0.2000
  band No.  band energies     occupation 
      1      -7.4588      2.00000
      2      -6.5497      2.00000
      3       1.3591      2.00000
      4       1.6518      2.00000
      5       3.1227      2.00000
      6       3.3027      2.00000
      7       4.3057      2.00000
      8       5.1749      2.00000
      9      12.3336      0.00000
     10      13.0563      0.00000
     11      14.5229      0.00000
     12      15.6136      0.00000
     13      16.9784      0.00000
     14      17.1848      0.00000
     15      18.0402      0.00000
     16      20.7627      0.00000

 k-point   393 :      -0.4444   -0.2222   -0.2000
  band No.  band energies     occupation 
      1      -6.9664      2.00000
      2      -6.5180      2.00000
      3       1.0192      2.00000
      4       1.6111      2.00000
      5       2.4823      2.00000
      6       3.6379      2.00000
      7       3.8673      2.00000
      8       4.7454      2.00000
      9      11.6943      0.00000
     10      13.5428      0.00000
     11      14.5656      0.00000
     12      15.3703      0.00000
     13      17.0212      0.00000
     14      17.4874      0.00000
     15      18.6381      0.00000
     16      20.6411      0.00000

 k-point   394 :      -0.3333   -0.2222   -0.2000
  band No.  band energies     occupation 
      1      -6.9664      2.00000
      2      -6.5180      2.00000
      3       1.0192      2.00000
      4       1.6111      2.00000
      5       2.4823      2.00000
      6       3.6379      2.00000
      7       3.8673      2.00000
      8       4.7454      2.00000
      9      11.6943      0.00000
     10      13.5428      0.00000
     11      14.5656      0.00000
     12      15.3703      0.00000
     13      17.0212      0.00000
     14      17.4874      0.00000
     15      18.6381      0.00000
     16      20.6411      0.00000

 k-point   395 :      -0.2222   -0.2222   -0.2000
  band No.  band energies     occupation 
      1      -7.4588      2.00000
      2      -6.5497      2.00000
      3       1.3591      2.00000
      4       1.6518      2.00000
      5       3.1227      2.00000
      6       3.3027      2.00000
      7       4.3057      2.00000
      8       5.1749      2.00000
      9      12.3336      0.00000
     10      13.0563      0.00000
     11      14.5229      0.00000
     12      15.6136      0.00000
     13      16.9784      0.00000
     14      17.1848      0.00000
     15      18.0402      0.00000
     16      20.8488      0.00000

 k-point   396 :      -0.1111   -0.2222   -0.2000
  band No.  band energies     occupation 
      1      -7.9927      2.00000
      2      -6.7415      2.00000
      3       1.2802      2.00000
      4       2.4080      2.00000
      5       3.0317      2.00000
      6       4.1542      2.00000
      7       5.0241      2.00000
      8       5.4359      2.00000
      9      12.2623      0.00000
     10      13.2435      0.00000
     11      14.3178      0.00000
     12      15.6311      0.00000
     13      16.8324      0.00000
     14      17.6865      0.00000
     15      18.1181      0.00000
     16      19.7426      0.00000

 k-point   397 :      -0.0000   -0.1111   -0.2000
  band No.  band energies     occupation 
      1      -8.7996      2.00000
      2      -7.1935      2.00000
      3       0.7239      2.00000
      4       4.4687      2.00000
      5       4.7017      2.00000
      6       5.0057      2.00000
      7       5.6212      2.00000
      8       5.6582      2.00000
      9      11.2099      0.00000
     10      13.1722      0.00000
     11      15.4806      0.00000
     12      16.1235      0.00000
     13      17.3783      0.00000
     14      17.8106      0.00000
     15      18.4153      0.00000
     16      18.6518      0.00000

 k-point   398 :       0.1111   -0.1111   -0.2000
  band No.  band energies     occupation 
      1      -8.7996      2.00000
      2      -7.1935      2.00000
      3       0.7239      2.00000
      4       4.4687      2.00000
      5       4.7017      2.00000
      6       5.0057      2.00000
      7       5.6212      2.00000
      8       5.6582      2.00000
      9      11.2099      0.00000
     10      13.1722      0.00000
     11      15.4807      0.00000
     12      16.1235      0.00000
     13      17.3783      0.00000
     14      17.8106      0.00000
     15      18.4153      0.00000
     16      18.6518      0.00000

 k-point   399 :       0.2222   -0.1111   -0.2000
  band No.  band energies     occupation 
      1      -8.5116      2.00000
      2      -7.0146      2.00000
      3       0.9834      2.00000
      4       3.6271      2.00000
      5       3.7881      2.00000
      6       4.7278      2.00000
      7       5.4000      2.00000
      8       5.5949      2.00000
      9      11.8515      0.00000
     10      13.9369      0.00000
     11      14.5802      0.00000
     12      15.2518      0.00000
     13      17.3713      0.00000
     14      17.9914      0.00000
     15      18.2464      0.00000
     16      19.1428      0.00000

 k-point   400 :       0.3333   -0.1111   -0.2000
  band No.  band energies     occupation 
      1      -7.9927      2.00000
      2      -6.7415      2.00000
      3       1.2802      2.00000
      4       2.4080      2.00000
      5       3.0317      2.00000
      6       4.1542      2.00000
      7       5.0241      2.00000
      8       5.4359      2.00000
      9      12.2623      0.00000
     10      13.2435      0.00000
     11      14.3178      0.00000
     12      15.6311      0.00000
     13      16.8324      0.00000
     14      17.6865      0.00000
     15      18.1181      0.00000
     16      19.7426      0.00000

 k-point   401 :       0.4444   -0.1111   -0.2000
  band No.  band energies     occupation 
      1      -7.3885      2.00000
      2      -6.5492      2.00000
      3       0.8895      2.00000
      4       1.7169      2.00000
      5       2.9320      2.00000
      6       3.7489      2.00000
      7       4.6982      2.00000
      8       5.0891      2.00000
      9      11.7065      0.00000
     10      12.6406      0.00000
     11      14.5347      0.00000
     12      15.8102      0.00000
     13      16.6951      0.00000
     14      17.6680      0.00000
     15      18.2996      0.00000
     16      20.3490      0.00000

 k-point   402 :      -0.4444   -0.1111   -0.2000
  band No.  band energies     occupation 
      1      -7.0435      2.00000
      2      -6.5466      2.00000
      3       0.5481      2.00000
      4       1.4668      2.00000
      5       3.0584      2.00000
      6       3.8047      2.00000
      7       4.4789      2.00000
      8       4.8456      2.00000
      9      11.3709      0.00000
     10      12.4323      0.00000
     11      14.9259      0.00000
     12      15.4041      0.00000
     13      16.6074      0.00000
     14      17.8791      0.00000
     15      18.5276      0.00000
     16      20.7186      0.00000

 k-point   403 :      -0.3333   -0.1111   -0.2000
  band No.  band energies     occupation 
      1      -7.3885      2.00000
      2      -6.5492      2.00000
      3       0.8895      2.00000
      4       1.7169      2.00000
      5       2.9320      2.00000
      6       3.7489      2.00000
      7       4.6982      2.00000
      8       5.0891      2.00000
      9      11.7065      0.00000
     10      12.6406      0.00000
     11      14.5347      0.00000
     12      15.8102      0.00000
     13      16.6951      0.00000
     14      17.6680      0.00000
     15      18.2996      0.00000
     16      20.3490      0.00000

 k-point   404 :      -0.2222   -0.1111   -0.2000
  band No.  band energies     occupation 
      1      -7.9927      2.00000
      2      -6.7415      2.00000
      3       1.2802      2.00000
      4       2.4080      2.00000
      5       3.0317      2.00000
      6       4.1542      2.00000
      7       5.0241      2.00000
      8       5.4359      2.00000
      9      12.2623      0.00000
     10      13.2435      0.00000
     11      14.3178      0.00000
     12      15.6311      0.00000
     13      16.8324      0.00000
     14      17.6865      0.00000
     15      18.1181      0.00000
     16      19.7426      0.00000

 k-point   405 :      -0.1111   -0.1111   -0.2000
  band No.  band energies     occupation 
      1      -8.5116      2.00000
      2      -7.0146      2.00000
      3       0.9834      2.00000
      4       3.6271      2.00000
      5       3.7881      2.00000
      6       4.7278      2.00000
      7       5.4000      2.00000
      8       5.5949      2.00000
      9      11.8515      0.00000
     10      13.9369      0.00000
     11      14.5802      0.00000
     12      15.2518      0.00000
     13      17.3713      0.00000
     14      17.9914      0.00000
     15      18.2464      0.00000
     16      19.1428      0.00000


--------------------------------------------------------------------------------------------------------


 soft charge-density along one line, spin component           1
         0         1         2         3         4         5         6         7         8         9
 total charge-density along one line
 
 pseudopotential strength for first ion, spin component:           1
  8.426  14.360  -0.000  -0.000   0.000  -0.000  -0.001   0.000
 14.360  24.471  -0.000  -0.001   0.000  -0.000  -0.002   0.000
 -0.000  -0.000   1.992   0.000   0.000   5.736  -0.000   0.000
 -0.000  -0.001   0.000   1.992   0.000  -0.000   5.736   0.000
  0.000   0.000   0.000   0.000   1.992   0.000   0.000   5.736
 -0.000  -0.000   5.736  -0.000   0.000  16.439  -0.000  -0.000
 -0.001  -0.002  -0.000   5.736   0.000  -0.000  16.439   0.000
  0.000   0.000   0.000   0.000   5.736  -0.000   0.000  16.439
 total augmentation occupancy for first ion, spin component:           1
  5.403  -1.839  -0.000   0.019  -0.000  -0.000  -0.003  -0.000
 -1.839   0.662   0.000  -0.006   0.000  -0.000   0.001  -0.000
 -0.000   0.000   1.647   0.000   0.000  -0.147  -0.000  -0.000
  0.019  -0.006   0.000   1.566   0.000  -0.000  -0.139  -0.000
 -0.000   0.000   0.000   0.000   1.647   0.000   0.000  -0.147
 -0.000  -0.000  -0.147  -0.000   0.000   0.014   0.000  -0.000
 -0.003   0.001  -0.000  -0.139   0.000   0.000   0.013   0.000
 -0.000  -0.000  -0.000  -0.000  -0.147  -0.000   0.000   0.014


------------------------ aborting loop because EDIFF is reached ----------------------------------------


 


 total charge     
 
# of ion       s       p       d       tot
------------------------------------------
    1        0.366   0.431   0.000   0.797
    2        0.366   0.431   0.000   0.797
    3        1.222   2.627   0.000   3.849
    4        1.222   2.627   0.000   3.849
--------------------------------------------------
tot          3.175   6.117   0.000   9.292
 
    CHARGE:  cpu time    0.0180: real time    0.0180
    FORLOC:  cpu time    0.0002: real time    0.0002
    FORNL :  cpu time    0.4031: real time    0.4032
    STRESS:  cpu time    1.2244: real time    1.2244
    FORCOR:  cpu time    0.0036: real time    0.0036
    FORHAR:  cpu time    0.0010: real time    0.0010
    MIXING:  cpu time    0.0002: real time    0.0002
    OFIELD:  cpu time    0.0001: real time    0.0001

  FORCE on cell =-STRESS in cart. coord.  units (eV):
  Direction    XX          YY          ZZ          XY          YZ          ZX
  --------------------------------------------------------------------------------------
  Alpha Z    15.37314    15.37314    15.37314
  Ewald    -197.72993  -197.72993  -192.85217     0.00001    -0.00000     0.00000
  Hartree    50.71708    50.71710    55.53477     0.00000    -0.00000    -0.00000
  E(xc)     -62.59693   -62.59693   -62.46455     0.00000     0.00000     0.00000
  Local     -50.21285   -50.21285   -60.03482    -0.00001     0.00000     0.00000
  n-local    10.65578    10.65578     9.51167     0.00000    -0.00000     0.00000
  augment     0.60498     0.60495     0.64893     0.00000     0.00000     0.00000
  Kinetic   233.20479   233.20479   234.27658     0.00000     0.00000     0.00000
  Fock        0.00000     0.00000     0.00000     0.00000     0.00000     0.00000
  -------------------------------------------------------------------------------------
  Total       0.01606     0.01606    -0.00646     0.00000     0.00000     0.00000
  in kB       0.60509     0.60490    -0.24337     0.00004     0.00002     0.00002
  external pressure =        0.32 kB  Pullay stress =        0.00 kB


 VOLUME and BASIS-vectors are now :
 -----------------------------------------------------------------------------
  energy-cutoff  :      520.00
  volume of cell :       42.53
      direct lattice vectors                 reciprocal lattice vectors
     1.564432972 -2.709677324  0.000000005     0.319604614 -0.184523817 -0.000000000
     1.564433005  2.709677342 -0.000000009     0.319604612  0.184523813  0.000000001
    -0.000000006 -0.000000011  5.015828303     0.000000000  0.000000001  0.199368866

  length of vectors
     3.128865885  3.128865917  5.015828303     0.369047624  0.369047620  0.199368866


 FORCES acting on ions
    electron-ion (+dipol)            ewald-force                    non-local-force                 convergence-correction
 -----------------------------------------------------------------------------------------------
   -.460E-05 0.157E-04 0.259E+00   0.371E-05 -.113E-04 0.873E-01   0.640E-06 -.191E-05 -.329E+00   -.505E-07 -.219E-06 0.712E-05
   0.410E-05 -.154E-04 0.259E+00   -.329E-05 0.110E-04 0.873E-01   -.440E-06 0.166E-05 -.329E+00   0.307E-07 0.186E-06 0.943E-05
   0.692E-06 -.168E-05 0.659E-01   -.224E-05 0.663E-05 -.873E-01   0.258E-05 -.611E-05 0.908E-02   -.294E-06 -.773E-07 0.572E-04
   0.113E-07 0.280E-05 0.658E-01   0.182E-05 -.630E-05 -.873E-01   -.240E-05 0.693E-05 0.908E-02   -.648E-09 -.162E-05 0.584E-04
 -----------------------------------------------------------------------------------------------
   0.208E-06 0.148E-05 0.649E+00   -.153E-14 0.236E-15 0.000E+00   0.389E-06 0.564E-06 -.639E+00   -.315E-06 -.173E-05 0.132E-03
 
 
 POSITION                                       TOTAL-FORCE (eV/Angst)
 -----------------------------------------------------------------------------------
      1.56443     -0.90323      2.50358        -0.000000      0.000002      0.014842
      1.56443      0.90323      5.01149         0.000000     -0.000003      0.014840
      1.56443     -0.90323      4.41827         0.000001     -0.000001     -0.014842
      1.56443      0.90323      1.91035        -0.000001      0.000002     -0.014840
 -----------------------------------------------------------------------------------
    total drift:                                0.000000      0.000000      0.010196


--------------------------------------------------------------------------------------------------------



  FREE ENERGIE OF THE ION-ELECTRON SYSTEM (eV)
  ---------------------------------------------------
  free  energy   TOTEN  =       -29.78076418 eV

  energy  without entropy=      -29.78076418  energy(sigma->0) =      -29.78076418
 


--------------------------------------------------------------------------------------------------------


    POTLOK:  cpu time    0.0430: real time    0.0430


--------------------------------------------------------------------------------------------------------


 stress matrix after NEB project (eV)
      0.01606      0.00000      0.00000
      0.00000      0.01606      0.00000
      0.00000      0.00000     -0.00646
  FORCES: max atom, RMS     0.014842    0.014841
  FORCE total and by dimension    0.029682    0.014842
  Stress total and by dimension    0.023610    0.016060
 writing wavefunctions
     LOOP+:  cpu time   27.3562: real time   27.8796
    4ORBIT:  cpu time    0.0000: real time    0.0000
 


 total charge     
 
# of ion       s       p       d       tot
------------------------------------------
    1        0.366   0.431   0.000   0.797
    2        0.366   0.431   0.000   0.797
    3        1.222   2.627   0.000   3.849
    4        1.222   2.627   0.000   3.849
--------------------------------------------------
tot          3.175   6.117   0.000   9.292
 

 total amount of memory used by VASP MPI-rank0    35936. kBytes
=======================================================================

   base      :      30000. kBytes
   nonlr-proj:        799. kBytes
   fftplans  :        421. kBytes
   grid      :        670. kBytes
   one-center:          3. kBytes
   wavefun   :       4043. kBytes
 
  
  
 General timing and accounting informations for this job:
 ========================================================
  
                  Total CPU time used (sec):       30.980
                            User time (sec):       27.381
                          System time (sec):        3.599
                         Elapsed time (sec):       31.856
  
                   Maximum memory used (kb):       60592.
                   Average memory used (kb):           0.
  
                          Minor page faults:       175957
                          Major page faults:            0
                 Voluntary context switches:         3861
