unknown system                          
   1.00000000000000     
     0.000004    2.028819    2.028819
     2.028819    0.000004    2.028819
     2.028819    2.028819    0.000004
   Li   F 
     1     1
Direct
  0.000000  0.000000  0.000000
  0.500000  0.500000  0.500000
 
   48   48   48
 -.64998649617E+02 -.63816544274E+02 -.60430487272E+02 -.54947150479E+02 -.47774536860E+02
 -.39782168810E+02 -.31408017286E+02 -.23972331619E+02 -.17686230567E+02 -.11065998994E+02
 -.46983133753E+01 -.51946442843E+00 -.11681935338E+01 -.10730950807E+01 0.58533736592E+00
 0.15240991352E+01 0.25157824142E+01 0.31134124096E+01 0.37992423082E+01 0.41789516633E+01
 0.46408939268E+01 0.48370695285E+01 0.51160116411E+01 0.51510718464E+01 0.52713754886E+01
 0.51510718178E+01 0.51160115727E+01 0.48370694741E+01 0.46408938279E+01 0.41789516425E+01
 0.37992422512E+01 0.31134125396E+01 0.25157825209E+01 0.15240996126E+01 0.58533794422E+00
 -.10730939138E+01 -.11681949013E+01 -.51946299479E+00 -.46983077518E+01 -.11065992654E+02
 -.17686224059E+02 -.23972324870E+02 -.31408008725E+02 -.39782160208E+02 -.47774528648E+02
 -.54947143370E+02 -.60430482465E+02 -.63816541774E+02 -.63816544159E+02 -.61547867211E+02
 -.57041339340E+02 -.50765477968E+02 -.43274106979E+02 -.35037799712E+02 -.27125577461E+02
 -.20539143606E+02 -.14159693053E+02 -.75747436979E+01 -.18798975557E+01 -.46819860177E+00
 -.15571921607E+01 -.94496948436E-01 0.10687852371E+01 0.21027976932E+01 0.28200959173E+01
 0.35058703638E+01 0.39987517023E+01 0.44392889511E+01 0.47501419894E+01 0.49950482847E+01
 0.51510275180E+01 0.52225133831E+01 0.52329690512E+01 0.51394228686E+01 0.50077629242E+01
 0.47385948621E+01 0.44512797501E+01 0.39852469278E+01 0.35187508666E+01 0.28073578273E+01
 0.21155299739E+01 0.10564224523E+01 -.82170100267E-01 -.15691233630E+01 -.45590363583E+00
 -.18935131290E+01 -.75776835919E+01 -.14163612789E+02 -.20536087228E+02 -.27076532399E+02
 -.35084380871E+02 -.43194864267E+02 -.50883049493E+02 -.57097911763E+02 -.61487459081E+02
 -.63815267938E+02 -.60430487103E+02 -.57041339255E+02 -.51819883194E+02 -.45053017168E+02
 -.37312246079E+02 -.29500469872E+02 -.22621781602E+02 -.16513047160E+02 -.99999077240E+01
 -.37939748165E+01 -.35870237534E+00 -.13377794528E+01 -.87511237469E+00 0.70572165887E+00
 0.16270209104E+01 0.25883725429E+01 0.31714132926E+01 0.38498701022E+01 0.42116887022E+01
 0.46764725429E+01 0.48580759449E+01 0.51442412315E+01 0.51661435038E+01 0.52943707129E+01
 0.51676503378E+01 0.51422038246E+01 0.48584727455E+01 0.46738810529E+01 0.42158518821E+01
 0.38472166576E+01 0.31751382646E+01 0.25838617074E+01 0.16317700966E+01 0.69977396917E+00
 -.86864633207E+00 -.13417974254E+01 -.34420754585E+00 -.38405011939E+01 -.10014776220E+02
 -.16524275181E+02 -.22612499952E+02 -.29487793022E+02 -.37346339271E+02 -.45019647858E+02
 -.51854290551E+02 -.57041702379E+02 -.60401165560E+02 -.61487461422E+02 -.54947150238E+02
 -.50765477869E+02 -.45053017128E+02 -.38099252082E+02 -.30891905164E+02 -.23980201701E+02
 -.18188933140E+02 -.11849482091E+02 -.56496076065E+01 -.89149067552E+00 -.84424977491E+00
 -.13864602716E+01 0.25775317262E+00 0.12606443230E+01 0.22896774692E+01 0.29307133905E+01
 0.36277430074E+01 0.40654746223E+01 0.45224610556E+01 0.47922797728E+01 0.50534926452E+01
 0.51801379714E+01 0.52705819015E+01 0.52634069832E+01 0.51876713595E+01 0.50469272737E+01
 0.48013976953E+01 0.45135094143E+01 0.40729479792E+01 0.36181745329E+01 0.29398658542E+01
 0.22808194822E+01 0.12699637197E+01 0.24930085862E+00 -.13807174084E+01 -.85462167803E+00
 -.87951794066E+00 -.56231600567E+01 -.11822460641E+02 -.18192284224E+02 -.23987414118E+02
 -.30882554224E+02 -.38146748791E+02 -.45095637379E+02 -.50862284077E+02 -.54885005068E+02
 -.57041704606E+02 -.57097916079E+02 -.47774536663E+02 -.43274106876E+02 -.37312246016E+02
 -.30891905170E+02 -.24394015567E+02 -.18974656101E+02 -.12950665675E+02 -.69120278815E+01
 -.16731639440E+01 -.43436416878E+00 -.15831991166E+01 -.20650658114E+00 0.96055452911E+00
 0.19966874173E+01 0.27167434021E+01 0.34177574907E+01 0.39154161095E+01 0.43868265215E+01
 0.47021647048E+01 0.49911093457E+01 0.51503090392E+01 0.52806069136E+01 0.52941818768E+01
 0.52791814538E+01 0.51503633293E+01 0.49896697508E+01 0.47026344230E+01 0.43864335548E+01
 0.39171342754E+01 0.34180970447E+01 0.27165207993E+01 0.19965507538E+01 0.95981763089E+00
 -.20364024004E+00 -.15795616571E+01 -.45291334472E+00 -.16989447996E+01 -.69098558606E+01
 -.12947906931E+02 -.18914175136E+02 -.24389497747E+02 -.30850083017E+02 -.37206044238E+02
 -.43285463471E+02 -.47733882355E+02 -.50862285796E+02 -.51854294729E+02 -.50883055923E+02
 -.39782168627E+02 -.35037799614E+02 -.29500469843E+02 -.23980201644E+02 -.18974656102E+02
 -.13410551760E+02 -.75668783774E+01 -.23900651971E+01 -.25862967177E+00 -.15831948048E+01
 -.57228866652E+00 0.70167998417E+00 0.17491741415E+01 0.25217754335E+01 0.32354267786E+01
 0.37721417239E+01 0.42633949404E+01 0.46138586655E+01 0.49246451739E+01 0.51189868083E+01
 0.52723434742E+01 0.53300890117E+01 0.53395855374E+01 0.52652257355E+01 0.51278336930E+01
 0.49156826330E+01 0.46231968397E+01 0.42545328186E+01 0.37791691559E+01 0.32270187842E+01
 0.25290518451E+01 0.17437954231E+01 0.70345351268E+00 -.57790013760E+00 -.15698479957E+01
 -.24628141565E+00 -.23817786151E+01 -.75123972361E+01 -.13429410406E+02 -.18906899232E+02
 -.23999846657E+02 -.29529313058E+02 -.35039446096E+02 -.39832934733E+02 -.43285465203E+02
 -.45095641365E+02 -.45019653635E+02 -.43194871629E+02 -.31408017148E+02 -.27125577344E+02
 -.22621781500E+02 -.18188933176E+02 -.12950665782E+02 -.75668784467E+01 -.25653809327E+01
 -.22396945825E+00 -.14292449276E+01 -.86181808819E+00 0.53554239973E+00 0.15055920109E+01
 0.24013058784E+01 0.30399997981E+01 0.36825459622E+01 0.41151793044E+01 0.45635201844E+01
 0.48270155530E+01 0.51146421143E+01 0.52328104523E+01 0.53812359075E+01 0.53643898082E+01
 0.53800851626E+01 0.52316209389E+01 0.51151596184E+01 0.48273698226E+01 0.45618117968E+01
 0.41170421376E+01 0.36812744735E+01 0.30441003459E+01 0.23959492134E+01 0.15144729283E+01
 0.53049060667E+00 -.86299067208E+00 -.14619501369E+01 -.22090391250E+00 -.26135955237E+01
 -.75100035328E+01 -.13026480349E+02 -.18115963772E+02 -.22575465973E+02 -.27163888670E+02
 -.31430511826E+02 -.35039447860E+02 -.37206047442E+02 -.38146753460E+02 -.37346345656E+02
 -.35084388585E+02 -.23972331379E+02 -.20539143481E+02 -.16513047267E+02 -.11849482283E+02
 -.69120280974E+01 -.23900653447E+01 -.22396947159E+00 -.14502575372E+01 -.98149659286E+00
 0.36743454749E+00 0.14050498268E+01 0.22519108850E+01 0.29476158548E+01 0.35467726127E+01
 0.40508189632E+01 0.44574123167E+01 0.47995884825E+01 0.50476683006E+01 0.52505740562E+01
 0.53609833890E+01 0.54361894189E+01 0.54219144220E+01 0.53761436551E+01 0.52365079368E+01
 0.50617002707E+01 0.47858116563E+01 0.44714898935E+01 0.40381062016E+01 0.35568094288E+01
 0.29371479980E+01 0.22575492146E+01 0.13963278304E+01 0.37819368730E+00 -.95548933243E+00
 -.14638113024E+01 -.16256441694E+00 -.24433953742E+01 -.67983022515E+01 -.11869535113E+02
 -.16584984760E+02 -.20474170740E+02 -.23993132266E+02 -.27163889555E+02 -.29529315550E+02
 -.30850086645E+02 -.30882559745E+02 -.29487799485E+02 -.27076539399E+02 -.17686230542E+02
 -.14159693256E+02 -.99999080459E+01 -.56496079880E+01 -.16731642121E+01 -.25862968971E+00
 -.14292449719E+01 -.98149667183E+00 0.37691729361E+00 0.13120938733E+01 0.21964776016E+01
 0.28329214099E+01 0.34954023714E+01 0.39481534662E+01 0.44212367587E+01 0.47209203565E+01
 0.50395191122E+01 0.52070707640E+01 0.53922528617E+01 0.54417882271E+01 0.55079585532E+01
 0.54431732361E+01 0.53904196055E+01 0.52096038356E+01 0.50343354882E+01 0.47279406159E+01
 0.44108365794E+01 0.39604965342E+01 0.34815819235E+01 0.28553728545E+01 0.21759676370E+01
 0.13335783354E+01 0.31751542399E+00 -.93415166782E+00 -.15352840905E+01 -.17843373108E+00
 -.17843529441E+01 -.56214545390E+01 -.99209012995E+01 -.14241294051E+02 -.17663041441E+02
 -.20474171567E+02 -.22575467708E+02 -.23999849625E+02 -.24389501673E+02 -.23987418712E+02
 -.22612505207E+02 -.20536092935E+02 -.11065999315E+02 -.75747441649E+01 -.37939753190E+01
 -.89149094173E+00 -.43436415438E+00 -.15831949377E+01 -.86181832991E+00 0.36743437120E+00
 0.13120937942E+01 0.21413653086E+01 0.28211647631E+01 0.34259599385E+01 0.39177332051E+01
 0.43529762340E+01 0.46998383363E+01 0.49909708719E+01 0.52091913822E+01 0.53767923414E+01
 0.54803389714E+01 0.55376178904E+01 0.55306912398E+01 0.54852228628E+01 0.53700839379E+01
 0.52179971519E+01 0.49823068112E+01 0.47104338868E+01 0.43412682777E+01 0.39322686951E+01
 0.34021561155E+01 0.28399410502E+01 0.21206007381E+01 0.13691619124E+01 0.32149418135E+00
 -.75935423339E+00 -.16629566523E+01 -.35545954724E+00 -.89651472480E+00 -.39457101802E+01
 -.74048417210E+01 -.11197620535E+02 -.14241294744E+02 -.16584986099E+02 -.18115965792E+02
 -.18906902176E+02 -.18914178698E+02 -.18192288959E+02 -.16524280778E+02 -.14163619215E+02
 -.46983139470E+01 -.18798980428E+01 -.35870248909E+00 -.84424978894E+00 -.15831994082E+01
 -.57228911692E+00 0.53554206288E+00 0.14050495483E+01 0.21964774301E+01 0.28211646588E+01
 0.34039212451E+01 0.38875026310E+01 0.43241329131E+01 0.46715976764E+01 0.49659631282E+01
 0.51974196501E+01 0.53705964362E+01 0.54995016805E+01 0.55641769264E+01 0.55987215337E+01
 0.55644942132E+01 0.55041294405E+01 0.53648885456E+01 0.52045707889E+01 0.49541879972E+01
 0.46866382242E+01 0.43060594739E+01 0.39152525102E+01 0.33835428515E+01 0.28450490981E+01
 0.21374253642E+01 0.14495645781E+01 0.44614054825E+00 -.52584669557E+00 -.15995146077E+01
 -.95332018010E+00 -.85989502704E-01 -.21657302649E+01 -.46408708199E+01 -.74048423176E+01
 -.99209028306E+01 -.11869537424E+02 -.13026483470E+02 -.13429414359E+02 -.12947911718E+02
 -.11822465817E+02 -.10014782054E+02 -.75776897227E+01 -.51946460785E+00 -.46819853829E+00
 -.13377795958E+01 -.13864608195E+01 -.20650721541E+00 0.70167945812E+00 0.15055915399E+01
 0.22519105241E+01 0.28329211354E+01 0.34259597710E+01 0.38875025423E+01 0.43246640170E+01
 0.46476742241E+01 0.49605483945E+01 0.51774761662E+01 0.53779964245E+01 0.54986961433E+01
 0.55996881549E+01 0.56332931227E+01 0.56428829443E+01 0.55874327297E+01 0.55077976300E+01
 0.53649833771E+01 0.51900417459E+01 0.49458870665E+01 0.46577145798E+01 0.43031596285E+01
 0.38951224376E+01 0.34188151583E+01 0.28708790149E+01 0.22378092033E+01 0.15451667597E+01
 0.72227199628E+00 -.27084135885E+00 -.12053680179E+01 -.16143026381E+01 -.32321665303E+00
 -.31553137174E+00 -.21657307366E+01 -.39457110687E+01 -.56214561008E+01 -.67983046021E+01
 -.75100066180E+01 -.75124011088E+01 -.69098603214E+01 -.56231651685E+01 -.38405063297E+01
 -.18935173445E+01 -.11681935129E+01 -.15571926468E+01 -.87511321721E+00 0.25775235354E+00
 0.96055378310E+00 0.17491734513E+01 0.24013053047E+01 0.29476153789E+01 0.34954019960E+01
 0.39177329175E+01 0.43241327173E+01 0.46476741295E+01 0.49541374161E+01 0.51733968003E+01
 0.53742256199E+01 0.55047826281E+01 0.56143470100E+01 0.56651755214E+01 0.56909857712E+01
 0.56644214776E+01 0.56158528165E+01 0.55105324029E+01 0.53763458994E+01 0.51818919970E+01
 0.49554631132E+01 0.46647420115E+01 0.43231557893E+01 0.39139221495E+01 0.34634607235E+01
 0.29542140477E+01 0.23756321333E+01 0.17209204394E+01 0.10146928636E+01 0.13422942760E+00
 -.73340356848E+00 -.15038968071E+01 -.14691304107E+01 -.32321639048E+00 -.85989566452E-01
 -.89651564703E+00 -.17843545808E+01 -.24433977078E+01 -.26135984473E+01 -.23817818676E+01
 -.16989481186E+01 -.87952028843E+00 -.34420830024E+00 -.45590254398E+00 -.10730959915E+01
 -.94497988415E-01 0.70572068483E+00 0.12606433561E+01 0.19966865070E+01 0.25217746403E+01
 0.30399990997E+01 0.35467720286E+01 0.39481529866E+01 0.43529758527E+01 0.46715973815E+01
 0.49605481784E+01 0.51733966898E+01 0.53729857892E+01 0.55075312069E+01 0.56232596062E+01
 0.56859234790E+01 0.57255996244E+01 0.57224804796E+01 0.56948346263E+01 0.56161543380E+01
 0.55116520560E+01 0.53587126288E+01 0.51790142315E+01 0.49470823180E+01 0.46784587184E+01
 0.43570970529E+01 0.39786786253E+01 0.35395587313E+01 0.30656638234E+01 0.25442381274E+01
 0.19562019880E+01 0.13432362544E+01 0.62376681067E+00 -.16764974071E+00 -.89042112614E+00
 -.15038968840E+01 -.16143024370E+01 -.95331943018E+00 -.35545868459E+00 -.17843319725E+00
 -.16256416964E+00 -.22090370807E+00 -.24628095272E+00 -.45291221899E+00 -.85462033570E+00
 -.13417964437E+01 -.15691239100E+01 0.58533625223E+00 0.10687840868E+01 0.16270197034E+01
 0.22896763286E+01 0.27167423574E+01 0.32354258236E+01 0.36825451359E+01 0.40508182469E+01
 0.44212361439E+01 0.46998378109E+01 0.49659626947E+01 0.51774758363E+01 0.53742253846E+01
 0.55075310861E+01 0.56262129030E+01 0.56952430206E+01 0.57459126783E+01 0.57584769284E+01
 0.57464684162E+01 0.56897477356E+01 0.56173909538E+01 0.55021850470E+01 0.53640502741E+01
 0.51738822557E+01 0.49596115454E+01 0.47023252552E+01 0.44056463437E+01 0.40489028199E+01
 0.36504133632E+01 0.32178808551E+01 0.27554136700E+01 0.22262875846E+01 0.16915592786E+01
 0.11216758045E+01 0.47624772103E+00 -.16764989916E+00 -.73340384123E+00 -.12053683977E+01
 -.15995148640E+01 -.16629564930E+01 -.15352834971E+01 -.14638105291E+01 -.14619494297E+01
 -.15698476180E+01 -.15795621421E+01 -.13807187617E+01 -.86864858074E+00 -.82172362426E-01
 0.15240977733E+01 0.21027962919E+01 0.25883712069E+01 0.29307121017E+01 0.34177562850E+01
 0.37721406455E+01 0.41151783345E+01 0.44574114622E+01 0.47209196093E+01 0.49909702239E+01
 0.51974190921E+01 0.53779959512E+01 0.55047822698E+01 0.56232593631E+01 0.56952429026E+01
 0.57528947239E+01 0.57765745479E+01 0.57764235148E+01 0.57411726917E+01 0.56988259449E+01
 0.56174850883E+01 0.55148338616E+01 0.53642825404E+01 0.51926877060E+01 0.49771118989E+01
 0.47364861686E+01 0.44679811158E+01 0.41554407645E+01 0.37797658187E+01 0.33873426152E+01
 0.29790411267E+01 0.25252569275E+01 0.20662392559E+01 0.16010891579E+01 0.11216756713E+01
 0.62376650911E+00 0.13422899136E+00 -.27084190154E+00 -.52584739521E+00 -.75935516483E+00
 -.93415284426E+00 -.95549071728E+00 -.86299231144E+00 -.57790207078E+00 -.20364217120E+00
 0.24929892850E+00 0.69977237230E+00 0.10564208631E+01 0.25157809005E+01 0.28200943920E+01
 0.31714117522E+01 0.36277415403E+01 0.39154147474E+01 0.42633936778E+01 0.45635190498E+01
 0.47995874630E+01 0.50395181994E+01 0.52091905695E+01 0.53705957295E+01 0.54986955558E+01
 0.56143465311E+01 0.56859231291E+01 0.57459124561E+01 0.57765744474E+01 0.57856177296E+01
 0.57674310625E+01 0.57491273845E+01 0.56927644816E+01 0.56201057700E+01 0.55067577370E+01
 0.53786582756E+01 0.52019091678E+01 0.50056405984E+01 0.47897059081E+01 0.45474628661E+01
 0.42533496497E+01 0.39247024572E+01 0.35890023117E+01 0.32427180816E+01 0.28418200063E+01
 0.24618038686E+01 0.20662390576E+01 0.16915589703E+01 0.13432358023E+01 0.10146922959E+01
 0.72227127580E+00 0.44613971388E+00 0.32149326305E+00 0.31751441429E+00 0.37819252867E+00
 0.53048931347E+00 0.70345215821E+00 0.95981602951E+00 0.12699620403E+01 0.16317681283E+01
 0.21155280377E+01 0.31134106879E+01 0.35058686150E+01 0.38498684132E+01 0.40654729922E+01
 0.43868249758E+01 0.46138572464E+01 0.48270142500E+01 0.50476671235E+01 0.52070697110E+01
 0.53767914091E+01 0.54995008615E+01 0.55996874472E+01 0.56651749538E+01 0.57255991911E+01
 0.57584766335E+01 0.57764233445E+01 0.57674309929E+01 0.57669477720E+01 0.57286183220E+01
 0.56815174282E+01 0.56002595931E+01 0.55111424751E+01 0.53742166226E+01 0.52235366957E+01
 0.50433454502E+01 0.48422690298E+01 0.46292437042E+01 0.43859174489E+01 0.40905044736E+01
 0.37970537653E+01 0.34878287473E+01 0.31520056746E+01 0.28418198657E+01 0.25252566086E+01
 0.22262871585E+01 0.19562014271E+01 0.17209197815E+01 0.15451659923E+01 0.14495636843E+01
 0.13691608141E+01 0.13335770442E+01 0.13963263731E+01 0.15144713284E+01 0.17437936301E+01
 0.19965490067E+01 0.22808176456E+01 0.25838600545E+01 0.28073561667E+01 0.37992404298E+01
 0.39987498139E+01 0.42116868033E+01 0.45224592191E+01 0.47021629721E+01 0.49246435507E+01
 0.51146406332E+01 0.52505727154E+01 0.53922516585E+01 0.54803379042E+01 0.55641760042E+01
 0.56332923549E+01 0.56909851428E+01 0.57224800035E+01 0.57464680838E+01 0.57411724864E+01
 0.57491272781E+01 0.57286182849E+01 0.57005842774E+01 0.56468213088E+01 0.55860509659E+01
 0.54871377980E+01 0.53794616425E+01 0.52367457102E+01 0.50686143312E+01 0.49146821960E+01
 0.47372930884E+01 0.44992106016E+01 0.42386693493E+01 0.40120955176E+01 0.37575764789E+01
 0.34878286189E+01 0.32427177577E+01 0.29790406516E+01 0.27554131023E+01 0.25442374487E+01
 0.23756313909E+01 0.22378083248E+01 0.21374243932E+01 0.21205996863E+01 0.21759664857E+01
 0.22575479275E+01 0.23959477919E+01 0.25290503661E+01 0.27165190809E+01 0.29398640869E+01
 0.31751362513E+01 0.35187488172E+01 0.41789495816E+01 0.44392868279E+01 0.46764704630E+01
 0.47922777566E+01 0.49911074254E+01 0.51189850351E+01 0.52328088289E+01 0.53609819315E+01
 0.54417869386E+01 0.55376167697E+01 0.55987205694E+01 0.56428821334E+01 0.56644208392E+01
 0.56948341453E+01 0.56897474055E+01 0.56988257359E+01 0.56927643703E+01 0.56815173787E+01
 0.56468212935E+01 0.56107323109E+01 0.55419352214E+01 0.54743429946E+01 0.53657437637E+01
 0.52375959234E+01 0.51231379679E+01 0.49875298838E+01 0.48133348191E+01 0.46174458095E+01
 0.44300466443E+01 0.42475027128E+01 0.40120952798E+01 0.37970534329E+01 0.35890017894E+01
 0.33873420188E+01 0.32178801466E+01 0.30656630413E+01 0.29542131797E+01 0.28708780837E+01
 0.28450480216E+01 0.28399397916E+01 0.28553714344E+01 0.29371464150E+01 0.30440986399E+01
 0.32270168729E+01 0.34180951662E+01 0.36181725131E+01 0.38472147619E+01 0.39852450330E+01
 0.46408916649E+01 0.47501397087E+01 0.48580736611E+01 0.50534904337E+01 0.51503069589E+01
 0.52723415446E+01 0.53812341669E+01 0.54361878718E+01 0.55079571973E+01 0.55306900727E+01
 0.55644932390E+01 0.55874319490E+01 0.56158521992E+01 0.56161538928E+01 0.56173906484E+01
 0.56174849013E+01 0.56201056676E+01 0.56002595437E+01 0.55860509420E+01 0.55419352100E+01
 0.55054907379E+01 0.54288825943E+01 0.53404081855E+01 0.52616684214E+01 0.51539632083E+01
 0.50418961762E+01 0.49157967772E+01 0.47556933447E+01 0.46006613863E+01 0.44300464255E+01
 0.42386690557E+01 0.40905040762E+01 0.39247019126E+01 0.37797652115E+01 0.36504126347E+01
 0.35395579267E+01 0.34634597935E+01 0.34188141127E+01 0.33835417098E+01 0.34021548609E+01
 0.34815805396E+01 0.35568079181E+01 0.36812728100E+01 0.37791674527E+01 0.39171323248E+01
 0.40729459973E+01 0.42158496590E+01 0.44512774338E+01 0.48370670754E+01 0.49950457925E+01
 0.51442387966E+01 0.51801356391E+01 0.52806047261E+01 0.53300870261E+01 0.53643880329E+01
 0.54219128700E+01 0.54431719073E+01 0.54852217477E+01 0.55041285192E+01 0.55077968885E+01
 0.55105318498E+01 0.55116516622E+01 0.55021847856E+01 0.55148337008E+01 0.55067576458E+01
 0.55111424202E+01 0.54871377599E+01 0.54743429617E+01 0.54288825733E+01 0.53756442494E+01
 0.53322202758E+01 0.52517488780E+01 0.51928473665E+01 0.51228418461E+01 0.49933850021E+01
 0.48597092902E+01 0.47556932503E+01 0.46174455525E+01 0.44992102990E+01 0.43859169533E+01
 0.42533490797E+01 0.41554401005E+01 0.40489020702E+01 0.39786777934E+01 0.39139211882E+01
 0.38951213428E+01 0.39152512484E+01 0.39322672629E+01 0.39604949226E+01 0.40381044354E+01
 0.41170402425E+01 0.42545307085E+01 0.43864314455E+01 0.45135071243E+01 0.46738788147E+01
 0.47385926312E+01 0.51160090469E+01 0.51510249310E+01 0.51661409609E+01 0.52705794824E+01
 0.52941796514E+01 0.53395835257E+01 0.53800833994E+01 0.53761421359E+01 0.53904183219E+01
 0.53700828740E+01 0.53648877011E+01 0.53649827306E+01 0.53763454143E+01 0.53587122963E+01
 0.53640500485E+01 0.53642823980E+01 0.53786581772E+01 0.53742165479E+01 0.53794615703E+01
 0.53657436983E+01 0.53404081297E+01 0.53322202448E+01 0.52829799054E+01 0.52675891539E+01
 0.52408028744E+01 0.51471481400E+01 0.50480288861E+01 0.49933850009E+01 0.49157965644E+01
 0.48133345326E+01 0.47372926615E+01 0.46292431397E+01 0.45474622590E+01 0.44679803938E+01
 0.44056455686E+01 0.43570961573E+01 0.43231547884E+01 0.43031584392E+01 0.43060581408E+01
 0.43412668066E+01 0.44108349601E+01 0.44714881378E+01 0.45618098734E+01 0.46231948689E+01
 0.47026321869E+01 0.48013954159E+01 0.48584702312E+01 0.50077602704E+01 0.51510691629E+01
 0.52225107073E+01 0.52943681518E+01 0.52634045958E+01 0.52791792791E+01 0.52652238217E+01
 0.52316192840E+01 0.52365065402E+01 0.52096026845E+01 0.52179962238E+01 0.52045700516E+01
 0.51900411720E+01 0.51818915894E+01 0.51790139428E+01 0.51738820550E+01 0.51926875559E+01
 0.52019090448E+01 0.52235365760E+01 0.52367455932E+01 0.52375958098E+01 0.52616683270E+01
 0.52517488165E+01 0.52675891257E+01 0.52803621359E+01 0.52225759148E+01 0.51667872117E+01
 0.51471481829E+01 0.51228417031E+01 0.50418958990E+01 0.49875295462E+01 0.49146816978E+01
 0.48422685091E+01 0.47897052893E+01 0.47364854648E+01 0.47023244407E+01 0.46784577668E+01
 0.46647409263E+01 0.46577133241E+01 0.46866367661E+01 0.47104322367E+01 0.47279388005E+01
 0.47858096676E+01 0.48273677178E+01 0.49156802789E+01 0.49896673882E+01 0.50469246907E+01
 0.51422012619E+01 0.51394203370E+01 0.52713728034E+01 0.52329664405E+01 0.51676478459E+01
 0.51876690580E+01 0.51503612776E+01 0.51278318983E+01 0.51151580962E+01 0.50616990025E+01
 0.50343344517E+01 0.49823059797E+01 0.49541873625E+01 0.49458865910E+01 0.49554627513E+01
 0.49470820578E+01 0.49596113363E+01 0.49771117219E+01 0.50056404237E+01 0.50433452764E+01
 0.50686141577E+01 0.51231378093E+01 0.51539630848E+01 0.51928472827E+01 0.52408028363E+01
 0.52225759094E+01 0.52059781258E+01 0.52225759872E+01 0.52408028073E+01 0.51928471242E+01
 0.51539629696E+01 0.51231376067E+01 0.50686139393E+01 0.50433450073E+01 0.50056400354E+01
 0.49771112361E+01 0.49596107070E+01 0.49470813178E+01 0.49554619316E+01 0.49458857083E+01
 0.49541864562E+01 0.49823051300E+01 0.50343336463E+01 0.50616983020E+01 0.51151574641E+01
 0.51278314959E+01 0.51503608534E+01 0.51876688479E+01 0.51676476300E+01 0.52329662024E+01
 0.51510692225E+01 0.51394203505E+01 0.51422014876E+01 0.50469251679E+01 0.49896678972E+01
 0.49156810558E+01 0.48273685037E+01 0.47858105769E+01 0.47279397531E+01 0.47104332061E+01
 0.46866376856E+01 0.46577141495E+01 0.46647416856E+01 0.46784584512E+01 0.47023250210E+01
 0.47364859405E+01 0.47897056758E+01 0.48422687983E+01 0.49146819731E+01 0.49875296983E+01
 0.50418960379E+01 0.51228417686E+01 0.51471481228E+01 0.51667872305E+01 0.52225760137E+01
 0.52803621354E+01 0.52675889757E+01 0.52517487471E+01 0.52616682189E+01 0.52375956603E+01
 0.52367454308E+01 0.52235362740E+01 0.52019086599E+01 0.51926870199E+01 0.51738813935E+01
 0.51790131551E+01 0.51818907321E+01 0.51900403080E+01 0.52045691465E+01 0.52179953371E+01
 0.52096018670E+01 0.52365058091E+01 0.52316186988E+01 0.52652232441E+01 0.52791789520E+01
 0.52634042783E+01 0.52943680237E+01 0.52225108160E+01 0.51160091472E+01 0.50077606405E+01
 0.48584706366E+01 0.48013958063E+01 0.47026327915E+01 0.46231954513E+01 0.45618106498E+01
 0.44714889564E+01 0.44108358247E+01 0.43412676708E+01 0.43060590090E+01 0.43031592596E+01
 0.43231554608E+01 0.43570967637E+01 0.44056460605E+01 0.44679808299E+01 0.45474625775E+01
 0.46292434239E+01 0.47372928414E+01 0.48133346318E+01 0.49157966591E+01 0.49933849719E+01
 0.50480289219E+01 0.51471482604E+01 0.52408028908E+01 0.52675890327E+01 0.52829798797E+01
 0.53322202077E+01 0.53404080372E+01 0.53657436193E+01 0.53794613505E+01 0.53742162433E+01
 0.53786577378E+01 0.53642818247E+01 0.53640493587E+01 0.53587114815E+01 0.53763445691E+01
 0.53649818592E+01 0.53648868848E+01 0.53700821448E+01 0.53904176791E+01 0.53761416112E+01
 0.53800829411E+01 0.53395832886E+01 0.52941793698E+01 0.52705793946E+01 0.51661408868E+01
 0.51510247916E+01 0.48370672920E+01 0.47385928047E+01 0.46738792007E+01 0.45135078000E+01
 0.43864321732E+01 0.42545316750E+01 0.41170411996E+01 0.40381054449E+01 0.39604959299E+01
 0.39322682098E+01 0.39152520930E+01 0.38951220753E+01 0.39139218239E+01 0.39786783011E+01
 0.40489024932E+01 0.41554404288E+01 0.42533493248E+01 0.43859171498E+01 0.44992103709E+01
 0.46174456563E+01 0.47556932976E+01 0.48597093411E+01 0.49933851219E+01 0.51228418636E+01
 0.51928472905E+01 0.52517488813E+01 0.53322202818E+01 0.53756442097E+01 0.54288825718E+01
 0.54743428122E+01 0.54871375224E+01 0.55111420517E+01 0.55067571462E+01 0.55148330925E+01
 0.55021840592E+01 0.55116508616E+01 0.55105310276E+01 0.55077961091E+01 0.55041277572E+01
 0.54852210448E+01 0.54431712998E+01 0.54219123394E+01 0.53643876442E+01 0.53300865996E+01
 0.52806045363E+01 0.51801354292E+01 0.51442387450E+01 0.49950460209E+01 0.46408919149E+01
 0.44512780051E+01 0.42158503152E+01 0.40729466060E+01 0.39171331122E+01 0.37791681775E+01
 0.36812736684E+01 0.35568087685E+01 0.34815813776E+01 0.34021556609E+01 0.33835424744E+01
 0.34188148306E+01 0.34634603856E+01 0.35395583938E+01 0.36504130071E+01 0.37797654714E+01
 0.39247021293E+01 0.40905042102E+01 0.42386691750E+01 0.44300465788E+01 0.46006614454E+01
 0.47556934049E+01 0.49157967887E+01 0.50418961621E+01 0.51539632299E+01 0.52616684373E+01
 0.53404081937E+01 0.54288826536E+01 0.55054906546E+01 0.55419350430E+01 0.55860506541E+01
 0.56002591202E+01 0.56201051417E+01 0.56174842615E+01 0.56173899374E+01 0.56161531203E+01
 0.56158514621E+01 0.55874312291E+01 0.55644926204E+01 0.55306895512E+01 0.55079567521E+01
 0.54361875287E+01 0.53812338462E+01 0.52723414334E+01 0.51503067719E+01 0.50534904440E+01
 0.48580737308E+01 0.47501396968E+01 0.41789500248E+01 0.39852454327E+01 0.38472153407E+01
 0.36181734128E+01 0.34180961005E+01 0.32270180137E+01 0.30440997144E+01 0.29371474864E+01
 0.28553724332E+01 0.28399406952E+01 0.28450487506E+01 0.28708786702E+01 0.29542137253E+01
 0.30656634808E+01 0.32178805149E+01 0.33873422897E+01 0.35890020351E+01 0.37970535782E+01
 0.40120954379E+01 0.42475027625E+01 0.44300466028E+01 0.46174458228E+01 0.48133348741E+01
 0.49875299137E+01 0.51231379583E+01 0.52375959639E+01 0.53657438614E+01 0.54743429810E+01
 0.55419351338E+01 0.56107321120E+01 0.56468209476E+01 0.56815169356E+01 0.56927638044E+01
 0.56988251132E+01 0.56897467040E+01 0.56948334610E+01 0.56644201820E+01 0.56428815548E+01
 0.55987200312E+01 0.55376162887E+01 0.54417865372E+01 0.53609815674E+01 0.52328085872E+01
 0.51189847149E+01 0.49911073471E+01 0.47922776662E+01 0.46764705157E+01 0.44392872470E+01
 0.37992408974E+01 0.35187496633E+01 0.31751372045E+01 0.29398649282E+01 0.27165200182E+01
 0.25290511807E+01 0.23959486622E+01 0.22575487488E+01 0.21759672406E+01 0.21206003832E+01
 0.21374250712E+01 0.22378089116E+01 0.23756318121E+01 0.25442378087E+01 0.27554133547E+01
 0.29790408536E+01 0.32427178769E+01 0.34878286572E+01 0.37575765085E+01 0.40120954612E+01
 0.42386693562E+01 0.44992106910E+01 0.47372931081E+01 0.49146821598E+01 0.50686143752E+01
 0.52367458207E+01 0.53794616803E+01 0.54871377889E+01 0.55860508459E+01 0.56468210535E+01
 0.57005839236E+01 0.57286178093E+01 0.57491267394E+01 0.57411718748E+01 0.57464674614E+01
 0.57224794078E+01 0.56909846050E+01 0.56332918684E+01 0.55641756086E+01 0.54803375876E+01
 0.53922513700E+01 0.52505725097E+01 0.51146404019E+01 0.49246435515E+01 0.47021628846E+01
 0.45224593706E+01 0.42116870889E+01 0.39987500054E+01 0.31134114501E+01 0.28073568260E+01
 0.25838608348E+01 0.22808187547E+01 0.19965501502E+01 0.17437949406E+01 0.15144725398E+01
 0.13963275193E+01 0.13335780791E+01 0.13691616821E+01 0.14495643122E+01 0.15451664837E+01
 0.17209201718E+01 0.19562017038E+01 0.22262873350E+01 0.25252567223E+01 0.28418199047E+01
 0.31520056935E+01 0.34878287788E+01 0.37970537384E+01 0.40905044895E+01 0.43859174442E+01
 0.46292436788E+01 0.48422690539E+01 0.50433455257E+01 0.52235367503E+01 0.53742166729E+01
 0.55111424275E+01 0.56002594332E+01 0.56815171672E+01 0.57286179369E+01 0.57669473135E+01
 0.57674304609E+01 0.57764227868E+01 0.57584760917E+01 0.57255987035E+01 0.56651745196E+01
 0.55996870863E+01 0.54995005285E+01 0.53767910968E+01 0.52070694603E+01 0.50476668690E+01
 0.48270141375E+01 0.46138570332E+01 0.43868250636E+01 0.40654730945E+01 0.38498686551E+01
 0.35058693200E+01 0.25157816378E+01 0.21155292130E+01 0.16317694388E+01 0.12699631438E+01
 0.95981714605E+00 0.70345310068E+00 0.53049026880E+00 0.37819340303E+00 0.31751517857E+00
 0.32149396054E+00 0.44614038246E+00 0.72227181905E+00 0.10146926472E+01 0.13432360407E+01
 0.16915590899E+01 0.20662391437E+01 0.24618038641E+01 0.28418199924E+01 0.32427180221E+01
 0.35890021957E+01 0.39247024129E+01 0.42533496552E+01 0.45474628725E+01 0.47897059096E+01
 0.50056406351E+01 0.52019092350E+01 0.53786582800E+01 0.55067576523E+01 0.56201055930E+01
 0.56927641819E+01 0.57491270128E+01 0.57674306072E+01 0.57856172430E+01 0.57765739597E+01
 0.57459120173E+01 0.56859227330E+01 0.56143461993E+01 0.54986952603E+01 0.53705954959E+01
 0.52091903835E+01 0.50395180109E+01 0.47995873641E+01 0.45635189163E+01 0.42633938421E+01
 0.39154148385E+01 0.36277419242E+01 0.31714123743E+01 0.28200948570E+01 0.15240989470E+01
 0.10564218388E+01 0.69977344249E+00 0.24930045239E+00 -.20364054595E+00 -.57790034927E+00
 -.86299082557E+00 -.95548943987E+00 -.93415175250E+00 -.75935431849E+00 -.52584685891E+00
 -.27084153553E+00 0.13422928551E+00 0.62376666765E+00 0.11216756962E+01 0.16010891040E+01
 0.20662391373E+01 0.25252568118E+01 0.29790410033E+01 0.33873424979E+01 0.37797657837E+01
 0.41554407371E+01 0.44679810749E+01 0.47364861608E+01 0.49771119330E+01 0.51926877088E+01
 0.53642825027E+01 0.55148337459E+01 0.56174848712E+01 0.56988256485E+01 0.57411723059E+01
 0.57764230856E+01 0.57765741092E+01 0.57528943178E+01 0.56952425347E+01 0.56232590518E+01
 0.55047820041E+01 0.53779957291E+01 0.51974188776E+01 0.49909700090E+01 0.47209194689E+01
 0.44574113170E+01 0.41151783998E+01 0.37721406122E+01 0.34177566465E+01 0.29307125115E+01