unknown system                          
           1
     0.000004    2.028819    2.028819
     2.028819    0.000004    2.028819
     2.028819    2.028819    0.000004
   Li   F 
   1   1
Direct configuration=     1
   0.00000000  0.00000001  0.00000001
   0.50000000  0.49999999  0.49999999
