  12  12   1   0
  0.1050332E+02  0.2916331E-09  0.4580966E-09  0.9434393E-09  0.5000000E-15
  1.000000000000000E-004
  CAR 
 unknown system                          
     10.18375603    -47.11960545  301      4.64929194      1.00000000
    -47.120  0.0000E+00  0.0000E+00
    -46.929  0.0000E+00  0.0000E+00
    -46.738  0.0000E+00  0.0000E+00
    -46.547  0.0000E+00  0.0000E+00
    -46.356  0.0000E+00  0.0000E+00
    -46.165  0.0000E+00  0.0000E+00
    -45.974  0.0000E+00  0.0000E+00
    -45.783  0.0000E+00  0.0000E+00
    -45.592  0.0000E+00  0.0000E+00
    -45.401  0.0000E+00  0.0000E+00
    -45.209  0.0000E+00  0.0000E+00
    -45.018  0.0000E+00  0.0000E+00
    -44.827  0.0000E+00  0.0000E+00
    -44.636  0.0000E+00  0.0000E+00
    -44.445  0.7710E-01  0.1473E-01
    -44.254  0.2736E+00  0.1206E+00
    -44.063  0.0000E+00  0.1206E+00
    -43.872  0.0000E+00  0.1206E+00
    -43.681  0.0000E+00  0.1206E+00
    -43.490  0.0000E+00  0.1206E+00
    -43.299  0.0000E+00  0.1206E+00
    -43.108  0.0000E+00  0.1206E+00
    -42.917  0.0000E+00  0.1206E+00
    -42.726  0.0000E+00  0.1206E+00
    -42.535  0.0000E+00  0.1206E+00
    -42.344  0.0000E+00  0.1206E+00
    -42.153  0.0000E+00  0.1206E+00
    -41.962  0.0000E+00  0.1206E+00
    -41.771  0.0000E+00  0.1206E+00
    -41.580  0.0000E+00  0.1206E+00
    -41.389  0.0000E+00  0.1206E+00
    -41.198  0.0000E+00  0.1206E+00
    -41.007  0.0000E+00  0.1206E+00
    -40.816  0.0000E+00  0.1206E+00
    -40.625  0.0000E+00  0.1206E+00
    -40.434  0.0000E+00  0.1206E+00
    -40.243  0.0000E+00  0.1206E+00
    -40.052  0.0000E+00  0.1206E+00
    -39.861  0.0000E+00  0.1206E+00
    -39.670  0.0000E+00  0.1206E+00
    -39.479  0.0000E+00  0.1206E+00
    -39.288  0.0000E+00  0.1206E+00
    -39.097  0.0000E+00  0.1206E+00
    -38.906  0.0000E+00  0.1206E+00
    -38.715  0.0000E+00  0.1206E+00
    -38.524  0.0000E+00  0.1206E+00
    -38.333  0.0000E+00  0.1206E+00
    -38.142  0.0000E+00  0.1206E+00
    -37.951  0.0000E+00  0.1206E+00
    -37.760  0.0000E+00  0.1206E+00
    -37.569  0.0000E+00  0.1206E+00
    -37.378  0.0000E+00  0.1206E+00
    -37.187  0.0000E+00  0.1206E+00
    -36.996  0.0000E+00  0.1206E+00
    -36.805  0.0000E+00  0.1206E+00
    -36.614  0.0000E+00  0.1206E+00
    -36.423  0.0000E+00  0.1206E+00
    -36.232  0.0000E+00  0.1206E+00
    -36.041  0.0000E+00  0.1206E+00
    -35.850  0.0000E+00  0.1206E+00
    -35.659  0.0000E+00  0.1206E+00
    -35.468  0.0000E+00  0.1206E+00
    -35.277  0.0000E+00  0.1206E+00
    -35.086  0.0000E+00  0.1206E+00
    -34.895  0.0000E+00  0.1206E+00
    -34.704  0.0000E+00  0.1206E+00
    -34.513  0.0000E+00  0.1206E+00
    -34.322  0.0000E+00  0.1206E+00
    -34.131  0.0000E+00  0.1206E+00
    -33.940  0.0000E+00  0.1206E+00
    -33.749  0.0000E+00  0.1206E+00
    -33.558  0.0000E+00  0.1206E+00
    -33.367  0.0000E+00  0.1206E+00
    -33.176  0.0000E+00  0.1206E+00
    -32.985  0.0000E+00  0.1206E+00
    -32.794  0.0000E+00  0.1206E+00
    -32.603  0.0000E+00  0.1206E+00
    -32.412  0.0000E+00  0.1206E+00
    -32.221  0.0000E+00  0.1206E+00
    -32.030  0.0000E+00  0.1206E+00
    -31.839  0.0000E+00  0.1206E+00
    -31.648  0.0000E+00  0.1206E+00
    -31.457  0.0000E+00  0.1206E+00
    -31.266  0.0000E+00  0.1206E+00
    -31.075  0.0000E+00  0.1206E+00
    -30.884  0.0000E+00  0.1206E+00
    -30.693  0.0000E+00  0.1206E+00
    -30.502  0.0000E+00  0.1206E+00
    -30.311  0.0000E+00  0.1206E+00
    -30.120  0.0000E+00  0.1206E+00
    -29.929  0.0000E+00  0.1206E+00
    -29.738  0.0000E+00  0.1206E+00
    -29.547  0.0000E+00  0.1206E+00
    -29.356  0.0000E+00  0.1206E+00
    -29.165  0.0000E+00  0.1206E+00
    -28.974  0.0000E+00  0.1206E+00
    -28.783  0.0000E+00  0.1206E+00
    -28.592  0.0000E+00  0.1206E+00
    -28.401  0.0000E+00  0.1206E+00
    -28.209  0.0000E+00  0.1206E+00
    -28.018  0.0000E+00  0.1206E+00
    -27.827  0.0000E+00  0.1206E+00
    -27.636  0.0000E+00  0.1206E+00
    -27.445  0.0000E+00  0.1206E+00
    -27.254  0.0000E+00  0.1206E+00
    -27.063  0.0000E+00  0.1206E+00
    -26.872  0.0000E+00  0.1206E+00
    -26.681  0.0000E+00  0.1206E+00
    -26.490  0.0000E+00  0.1206E+00
    -26.299  0.0000E+00  0.1206E+00
    -26.108  0.0000E+00  0.1206E+00
    -25.917  0.0000E+00  0.1206E+00
    -25.726  0.0000E+00  0.1206E+00
    -25.535  0.0000E+00  0.1206E+00
    -25.344  0.0000E+00  0.1206E+00
    -25.153  0.0000E+00  0.1206E+00
    -24.962  0.0000E+00  0.1206E+00
    -24.771  0.0000E+00  0.1206E+00
    -24.580  0.0000E+00  0.1206E+00
    -24.389  0.0000E+00  0.1206E+00
    -24.198  0.0000E+00  0.1206E+00
    -24.007  0.0000E+00  0.1206E+00
    -23.816  0.0000E+00  0.1206E+00
    -23.625  0.0000E+00  0.1206E+00
    -23.434  0.0000E+00  0.1206E+00
    -23.243  0.0000E+00  0.1206E+00
    -23.052  0.0000E+00  0.1206E+00
    -22.861  0.0000E+00  0.1206E+00
    -22.670  0.0000E+00  0.1206E+00
    -22.479  0.0000E+00  0.1206E+00
    -22.288  0.0000E+00  0.1206E+00
    -22.097  0.0000E+00  0.1206E+00
    -21.906  0.0000E+00  0.1206E+00
    -21.715  0.0000E+00  0.1206E+00
    -21.524  0.0000E+00  0.1206E+00
    -21.333  0.0000E+00  0.1206E+00
    -21.142  0.0000E+00  0.1206E+00
    -20.951  0.0000E+00  0.1206E+00
    -20.760  0.0000E+00  0.1206E+00
    -20.569  0.0000E+00  0.1206E+00
    -20.378  0.0000E+00  0.1206E+00
    -20.187  0.0000E+00  0.1206E+00
    -19.996  0.0000E+00  0.1206E+00
    -19.805  0.0000E+00  0.1206E+00
    -19.614  0.0000E+00  0.1206E+00
    -19.423  0.0000E+00  0.1206E+00
    -19.232  0.0000E+00  0.1206E+00
    -19.041  0.0000E+00  0.1206E+00
    -18.850  0.0000E+00  0.1206E+00
    -18.659  0.0000E+00  0.1206E+00
    -18.468  0.0000E+00  0.1206E+00
    -18.277  0.0000E+00  0.1206E+00
    -18.086  0.0000E+00  0.1206E+00
    -17.895  0.0000E+00  0.1206E+00
    -17.704  0.0000E+00  0.1206E+00
    -17.513  0.0000E+00  0.1206E+00
    -17.322  0.0000E+00  0.1206E+00
    -17.131  0.0000E+00  0.1206E+00
    -16.940  0.0000E+00  0.1206E+00
    -16.749  0.0000E+00  0.1206E+00
    -16.558  0.0000E+00  0.1206E+00
    -16.367  0.0000E+00  0.1206E+00
    -16.176  0.0000E+00  0.1206E+00
    -15.985  0.0000E+00  0.1206E+00
    -15.794  0.0000E+00  0.1206E+00
    -15.603  0.8939E-03  0.1208E+00
    -15.412  0.3345E-02  0.1220E+00
    -15.221  0.3333E-02  0.1239E+00
    -15.030  0.9529E-02  0.1276E+00
    -14.839  0.5997E-02  0.1297E+00
    -14.648  0.7992E-02  0.1330E+00
    -14.457  0.1241E-01  0.1385E+00
    -14.266  0.1875E-01  0.1451E+00
    -14.075  0.3999E-01  0.1577E+00
    -13.884  0.1875E-01  0.1679E+00
    -13.693  0.1452E-01  0.1773E+00
    -13.502  0.4455E-02  0.1797E+00
    -13.311  0.2579E-01  0.1878E+00
    -13.120  0.0000E+00  0.2010E+00
    -12.929  0.0000E+00  0.2010E+00
    -12.738  0.0000E+00  0.2010E+00
    -12.547  0.0000E+00  0.2010E+00
    -12.356  0.0000E+00  0.2010E+00
    -12.165  0.0000E+00  0.2010E+00
    -11.974  0.0000E+00  0.2010E+00
    -11.783  0.0000E+00  0.2010E+00
    -11.592  0.0000E+00  0.2010E+00
    -11.401  0.0000E+00  0.2010E+00
    -11.209  0.0000E+00  0.2010E+00
    -11.018  0.0000E+00  0.2010E+00
    -10.827  0.0000E+00  0.2010E+00
    -10.636  0.0000E+00  0.2010E+00
    -10.445  0.0000E+00  0.2010E+00
    -10.254  0.0000E+00  0.2010E+00
    -10.063  0.0000E+00  0.2010E+00
     -9.872  0.0000E+00  0.2010E+00
     -9.681  0.0000E+00  0.2010E+00
     -9.490  0.0000E+00  0.2010E+00
     -9.299  0.0000E+00  0.2010E+00
     -9.108  0.0000E+00  0.2010E+00
     -8.917  0.0000E+00  0.2010E+00
     -8.726  0.0000E+00  0.2010E+00
     -8.535  0.0000E+00  0.2010E+00
     -8.344  0.0000E+00  0.2010E+00
     -8.153  0.0000E+00  0.2010E+00
     -7.962  0.0000E+00  0.2010E+00
     -7.771  0.0000E+00  0.2010E+00
     -7.580  0.0000E+00  0.2010E+00
     -7.389  0.0000E+00  0.2010E+00
     -7.198  0.0000E+00  0.2010E+00
     -7.007  0.0000E+00  0.2010E+00
     -6.816  0.0000E+00  0.2010E+00
     -6.625  0.0000E+00  0.2010E+00
     -6.434  0.0000E+00  0.2010E+00
     -6.243  0.0000E+00  0.2010E+00
     -6.052  0.0000E+00  0.2010E+00
     -5.861  0.0000E+00  0.2010E+00
     -5.670  0.0000E+00  0.2010E+00
     -5.479  0.0000E+00  0.2010E+00
     -5.288  0.0000E+00  0.2010E+00
     -5.097  0.0000E+00  0.2010E+00
     -4.906  0.0000E+00  0.2010E+00
     -4.715  0.0000E+00  0.2010E+00
     -4.524  0.0000E+00  0.2010E+00
     -4.333  0.0000E+00  0.2010E+00
     -4.142  0.0000E+00  0.2010E+00
     -3.951  0.0000E+00  0.2010E+00
     -3.760  0.0000E+00  0.2010E+00
     -3.569  0.0000E+00  0.2010E+00
     -3.378  0.0000E+00  0.2010E+00
     -3.187  0.0000E+00  0.2010E+00
     -2.996  0.4254E-03  0.2011E+00
     -2.805  0.3667E-02  0.2023E+00
     -2.614  0.4234E-02  0.2036E+00
     -2.423  0.1127E-01  0.2076E+00
     -2.232  0.1484E-01  0.2148E+00
     -2.041  0.2419E-01  0.2276E+00
     -1.850  0.2281E-01  0.2375E+00
     -1.659  0.2554E-01  0.2480E+00
     -1.468  0.3670E-01  0.2654E+00
     -1.277  0.1693E-01  0.2723E+00
     -1.086  0.1749E-01  0.2797E+00
     -0.895  0.1490E-01  0.2862E+00
     -0.704  0.1306E-01  0.2916E+00
     -0.513  0.1792E-01  0.2974E+00
     -0.322  0.1548E-01  0.3062E+00
     -0.131  0.1404E-01  0.3161E+00
      0.060  0.9573E-02  0.3229E+00
      0.251  0.1600E-01  0.3307E+00
      0.442  0.2285E-01  0.3386E+00
      0.633  0.2293E-01  0.3480E+00
      0.824  0.2094E-01  0.3578E+00
      1.015  0.3193E-01  0.3720E+00
      1.206  0.2143E-01  0.3833E+00
      1.397  0.2061E-01  0.3919E+00
      1.588  0.2101E-01  0.3982E+00
      1.779  0.8271E-02  0.4043E+00
      1.970  0.1353E-01  0.4118E+00
      2.161  0.1093E-01  0.4185E+00
      2.352  0.1174E-01  0.4244E+00
      2.543  0.2041E-01  0.4319E+00
      2.734  0.1201E-01  0.4380E+00
      2.925  0.3188E-02  0.4409E+00
      3.116  0.1874E-02  0.4421E+00
      3.307  0.0000E+00  0.4422E+00
      3.498  0.3793E-16  0.4422E+00
      3.689  0.6245E-02  0.4436E+00
      3.880  0.2787E-01  0.4537E+00
      4.071  0.3309E-01  0.4699E+00
      4.262  0.3668E-01  0.4829E+00
      4.453  0.2073E-01  0.4939E+00
      4.644  0.1896E-01  0.5022E+00
      4.835  0.3895E-01  0.5185E+00
      5.026  0.1286E-01  0.5279E+00
      5.217  0.1961E-01  0.5361E+00
      5.408  0.2590E-01  0.5466E+00
      5.599  0.1765E-01  0.5555E+00
      5.790  0.1011E-01  0.5616E+00
      5.982  0.0000E+00  0.5628E+00
      6.173  0.4272E-05  0.5628E+00
      6.364  0.1788E-02  0.5634E+00
      6.555  0.1334E-01  0.5664E+00
      6.746  0.2140E-01  0.5779E+00
      6.937  0.1086E-01  0.5874E+00
      7.128  0.7261E-02  0.5949E+00
      7.319  0.4488E-02  0.5988E+00
      7.510  0.6601E-02  0.6022E+00
      7.701  0.0000E+00  0.6030E+00
      7.892  0.0000E+00  0.6030E+00
      8.083  0.0000E+00  0.6030E+00
      8.274  0.0000E+00  0.6030E+00
      8.465  0.0000E+00  0.6030E+00
      8.656  0.0000E+00  0.6030E+00
      8.847  0.0000E+00  0.6030E+00
      9.038  0.0000E+00  0.6030E+00
      9.229  0.0000E+00  0.6030E+00
      9.420  0.0000E+00  0.6030E+00
      9.611  0.0000E+00  0.6030E+00
      9.802  0.0000E+00  0.6030E+00
      9.993  0.0000E+00  0.6030E+00
     10.184  0.0000E+00  0.6030E+00
     10.18375603    -47.11960545  301      4.64929194      1.00000000
    -47.120  0.0000E+00  0.0000E+00  0.0000E+00  0.0000E+00  0.0000E+00  0.0000E+00  0.0000E+00  0.0000E+00  0.0000E+00
    -46.929  0.0000E+00  0.0000E+00  0.0000E+00  0.0000E+00  0.0000E+00  0.0000E+00  0.0000E+00  0.0000E+00  0.0000E+00
    -46.738  0.0000E+00  0.0000E+00  0.0000E+00  0.0000E+00  0.0000E+00  0.0000E+00  0.0000E+00  0.0000E+00  0.0000E+00
    -46.547  0.0000E+00  0.0000E+00  0.0000E+00  0.0000E+00  0.0000E+00  0.0000E+00  0.0000E+00  0.0000E+00  0.0000E+00
    -46.356  0.0000E+00  0.0000E+00  0.0000E+00  0.0000E+00  0.0000E+00  0.0000E+00  0.0000E+00  0.0000E+00  0.0000E+00
    -46.165  0.0000E+00  0.0000E+00  0.0000E+00  0.0000E+00  0.0000E+00  0.0000E+00  0.0000E+00  0.0000E+00  0.0000E+00
    -45.974  0.0000E+00  0.0000E+00  0.0000E+00  0.0000E+00  0.0000E+00  0.0000E+00  0.0000E+00  0.0000E+00  0.0000E+00
    -45.783  0.0000E+00  0.0000E+00  0.0000E+00  0.0000E+00  0.0000E+00  0.0000E+00  0.0000E+00  0.0000E+00  0.0000E+00
    -45.592  0.0000E+00  0.0000E+00  0.0000E+00  0.0000E+00  0.0000E+00  0.0000E+00  0.0000E+00  0.0000E+00  0.0000E+00
    -45.401  0.0000E+00  0.0000E+00  0.0000E+00  0.0000E+00  0.0000E+00  0.0000E+00  0.0000E+00  0.0000E+00  0.0000E+00
    -45.209  0.0000E+00  0.0000E+00  0.0000E+00  0.0000E+00  0.0000E+00  0.0000E+00  0.0000E+00  0.0000E+00  0.0000E+00
    -45.018  0.0000E+00  0.0000E+00  0.0000E+00  0.0000E+00  0.0000E+00  0.0000E+00  0.0000E+00  0.0000E+00  0.0000E+00
    -44.827  0.0000E+00  0.0000E+00  0.0000E+00  0.0000E+00  0.0000E+00  0.0000E+00  0.0000E+00  0.0000E+00  0.0000E+00
    -44.636  0.0000E+00  0.0000E+00  0.0000E+00  0.0000E+00  0.0000E+00  0.0000E+00  0.0000E+00  0.0000E+00  0.0000E+00
    -44.445  0.5058E-04  0.4459E-02  0.4463E-01  0.3781E+01  0.5123E-05  0.2207E-05  0.2388E-04  0.3613E-05  0.5745E-04
    -44.254  0.4562E-04  0.4720E+01  0.5561E+01  0.3218E+01  0.5062E-05  0.8179E-04  0.2167E-04  0.1920E-04  0.7489E-04
    -44.063  0.0000E+00  0.0000E+00  0.0000E+00  0.0000E+00  0.0000E+00  0.0000E+00  0.0000E+00  0.0000E+00  0.0000E+00
    -43.872  0.0000E+00  0.0000E+00  0.0000E+00  0.0000E+00  0.0000E+00  0.0000E+00  0.0000E+00  0.0000E+00  0.0000E+00
    -43.681  0.0000E+00  0.0000E+00  0.0000E+00  0.0000E+00  0.0000E+00  0.0000E+00  0.0000E+00  0.0000E+00  0.0000E+00
    -43.490  0.0000E+00  0.0000E+00  0.0000E+00  0.0000E+00  0.0000E+00  0.0000E+00  0.0000E+00  0.0000E+00  0.0000E+00
    -43.299  0.0000E+00  0.0000E+00  0.0000E+00  0.0000E+00  0.0000E+00  0.0000E+00  0.0000E+00  0.0000E+00  0.0000E+00
    -43.108  0.0000E+00  0.0000E+00  0.0000E+00  0.0000E+00  0.0000E+00  0.0000E+00  0.0000E+00  0.0000E+00  0.0000E+00
    -42.917  0.0000E+00  0.0000E+00  0.0000E+00  0.0000E+00  0.0000E+00  0.0000E+00  0.0000E+00  0.0000E+00  0.0000E+00
    -42.726  0.0000E+00  0.0000E+00  0.0000E+00  0.0000E+00  0.0000E+00  0.0000E+00  0.0000E+00  0.0000E+00  0.0000E+00
    -42.535  0.0000E+00  0.0000E+00  0.0000E+00  0.0000E+00  0.0000E+00  0.0000E+00  0.0000E+00  0.0000E+00  0.0000E+00
    -42.344  0.0000E+00  0.0000E+00  0.0000E+00  0.0000E+00  0.0000E+00  0.0000E+00  0.0000E+00  0.0000E+00  0.0000E+00
    -42.153  0.0000E+00  0.0000E+00  0.0000E+00  0.0000E+00  0.0000E+00  0.0000E+00  0.0000E+00  0.0000E+00  0.0000E+00
    -41.962  0.0000E+00  0.0000E+00  0.0000E+00  0.0000E+00  0.0000E+00  0.0000E+00  0.0000E+00  0.0000E+00  0.0000E+00
    -41.771  0.0000E+00  0.0000E+00  0.0000E+00  0.0000E+00  0.0000E+00  0.0000E+00  0.0000E+00  0.0000E+00  0.0000E+00
    -41.580  0.0000E+00  0.0000E+00  0.0000E+00  0.0000E+00  0.0000E+00  0.0000E+00  0.0000E+00  0.0000E+00  0.0000E+00
    -41.389  0.0000E+00  0.0000E+00  0.0000E+00  0.0000E+00  0.0000E+00  0.0000E+00  0.0000E+00  0.0000E+00  0.0000E+00
    -41.198  0.0000E+00  0.0000E+00  0.0000E+00  0.0000E+00  0.0000E+00  0.0000E+00  0.0000E+00  0.0000E+00  0.0000E+00
    -41.007  0.0000E+00  0.0000E+00  0.0000E+00  0.0000E+00  0.0000E+00  0.0000E+00  0.0000E+00  0.0000E+00  0.0000E+00
    -40.816  0.0000E+00  0.0000E+00  0.0000E+00  0.0000E+00  0.0000E+00  0.0000E+00  0.0000E+00  0.0000E+00  0.0000E+00
    -40.625  0.0000E+00  0.0000E+00  0.0000E+00  0.0000E+00  0.0000E+00  0.0000E+00  0.0000E+00  0.0000E+00  0.0000E+00
    -40.434  0.0000E+00  0.0000E+00  0.0000E+00  0.0000E+00  0.0000E+00  0.0000E+00  0.0000E+00  0.0000E+00  0.0000E+00
    -40.243  0.0000E+00  0.0000E+00  0.0000E+00  0.0000E+00  0.0000E+00  0.0000E+00  0.0000E+00  0.0000E+00  0.0000E+00
    -40.052  0.0000E+00  0.0000E+00  0.0000E+00  0.0000E+00  0.0000E+00  0.0000E+00  0.0000E+00  0.0000E+00  0.0000E+00
    -39.861  0.0000E+00  0.0000E+00  0.0000E+00  0.0000E+00  0.0000E+00  0.0000E+00  0.0000E+00  0.0000E+00  0.0000E+00
    -39.670  0.0000E+00  0.0000E+00  0.0000E+00  0.0000E+00  0.0000E+00  0.0000E+00  0.0000E+00  0.0000E+00  0.0000E+00
    -39.479  0.0000E+00  0.0000E+00  0.0000E+00  0.0000E+00  0.0000E+00  0.0000E+00  0.0000E+00  0.0000E+00  0.0000E+00
    -39.288  0.0000E+00  0.0000E+00  0.0000E+00  0.0000E+00  0.0000E+00  0.0000E+00  0.0000E+00  0.0000E+00  0.0000E+00
    -39.097  0.0000E+00  0.0000E+00  0.0000E+00  0.0000E+00  0.0000E+00  0.0000E+00  0.0000E+00  0.0000E+00  0.0000E+00
    -38.906  0.0000E+00  0.0000E+00  0.0000E+00  0.0000E+00  0.0000E+00  0.0000E+00  0.0000E+00  0.0000E+00  0.0000E+00
    -38.715  0.0000E+00  0.0000E+00  0.0000E+00  0.0000E+00  0.0000E+00  0.0000E+00  0.0000E+00  0.0000E+00  0.0000E+00
    -38.524  0.0000E+00  0.0000E+00  0.0000E+00  0.0000E+00  0.0000E+00  0.0000E+00  0.0000E+00  0.0000E+00  0.0000E+00
    -38.333  0.0000E+00  0.0000E+00  0.0000E+00  0.0000E+00  0.0000E+00  0.0000E+00  0.0000E+00  0.0000E+00  0.0000E+00
    -38.142  0.0000E+00  0.0000E+00  0.0000E+00  0.0000E+00  0.0000E+00  0.0000E+00  0.0000E+00  0.0000E+00  0.0000E+00
    -37.951  0.0000E+00  0.0000E+00  0.0000E+00  0.0000E+00  0.0000E+00  0.0000E+00  0.0000E+00  0.0000E+00  0.0000E+00
    -37.760  0.0000E+00  0.0000E+00  0.0000E+00  0.0000E+00  0.0000E+00  0.0000E+00  0.0000E+00  0.0000E+00  0.0000E+00
    -37.569  0.0000E+00  0.0000E+00  0.0000E+00  0.0000E+00  0.0000E+00  0.0000E+00  0.0000E+00  0.0000E+00  0.0000E+00
    -37.378  0.0000E+00  0.0000E+00  0.0000E+00  0.0000E+00  0.0000E+00  0.0000E+00  0.0000E+00  0.0000E+00  0.0000E+00
    -37.187  0.0000E+00  0.0000E+00  0.0000E+00  0.0000E+00  0.0000E+00  0.0000E+00  0.0000E+00  0.0000E+00  0.0000E+00
    -36.996  0.0000E+00  0.0000E+00  0.0000E+00  0.0000E+00  0.0000E+00  0.0000E+00  0.0000E+00  0.0000E+00  0.0000E+00
    -36.805  0.0000E+00  0.0000E+00  0.0000E+00  0.0000E+00  0.0000E+00  0.0000E+00  0.0000E+00  0.0000E+00  0.0000E+00
    -36.614  0.0000E+00  0.0000E+00  0.0000E+00  0.0000E+00  0.0000E+00  0.0000E+00  0.0000E+00  0.0000E+00  0.0000E+00
    -36.423  0.0000E+00  0.0000E+00  0.0000E+00  0.0000E+00  0.0000E+00  0.0000E+00  0.0000E+00  0.0000E+00  0.0000E+00
    -36.232  0.0000E+00  0.0000E+00  0.0000E+00  0.0000E+00  0.0000E+00  0.0000E+00  0.0000E+00  0.0000E+00  0.0000E+00
    -36.041  0.0000E+00  0.0000E+00  0.0000E+00  0.0000E+00  0.0000E+00  0.0000E+00  0.0000E+00  0.0000E+00  0.0000E+00
    -35.850  0.0000E+00  0.0000E+00  0.0000E+00  0.0000E+00  0.0000E+00  0.0000E+00  0.0000E+00  0.0000E+00  0.0000E+00
    -35.659  0.0000E+00  0.0000E+00  0.0000E+00  0.0000E+00  0.0000E+00  0.0000E+00  0.0000E+00  0.0000E+00  0.0000E+00
    -35.468  0.0000E+00  0.0000E+00  0.0000E+00  0.0000E+00  0.0000E+00  0.0000E+00  0.0000E+00  0.0000E+00  0.0000E+00
    -35.277  0.0000E+00  0.0000E+00  0.0000E+00  0.0000E+00  0.0000E+00  0.0000E+00  0.0000E+00  0.0000E+00  0.0000E+00
    -35.086  0.0000E+00  0.0000E+00  0.0000E+00  0.0000E+00  0.0000E+00  0.0000E+00  0.0000E+00  0.0000E+00  0.0000E+00
    -34.895  0.0000E+00  0.0000E+00  0.0000E+00  0.0000E+00  0.0000E+00  0.0000E+00  0.0000E+00  0.0000E+00  0.0000E+00
    -34.704  0.0000E+00  0.0000E+00  0.0000E+00  0.0000E+00  0.0000E+00  0.0000E+00  0.0000E+00  0.0000E+00  0.0000E+00
    -34.513  0.0000E+00  0.0000E+00  0.0000E+00  0.0000E+00  0.0000E+00  0.0000E+00  0.0000E+00  0.0000E+00  0.0000E+00
    -34.322  0.0000E+00  0.0000E+00  0.0000E+00  0.0000E+00  0.0000E+00  0.0000E+00  0.0000E+00  0.0000E+00  0.0000E+00
    -34.131  0.0000E+00  0.0000E+00  0.0000E+00  0.0000E+00  0.0000E+00  0.0000E+00  0.0000E+00  0.0000E+00  0.0000E+00
    -33.940  0.0000E+00  0.0000E+00  0.0000E+00  0.0000E+00  0.0000E+00  0.0000E+00  0.0000E+00  0.0000E+00  0.0000E+00
    -33.749  0.0000E+00  0.0000E+00  0.0000E+00  0.0000E+00  0.0000E+00  0.0000E+00  0.0000E+00  0.0000E+00  0.0000E+00
    -33.558  0.0000E+00  0.0000E+00  0.0000E+00  0.0000E+00  0.0000E+00  0.0000E+00  0.0000E+00  0.0000E+00  0.0000E+00
    -33.367  0.0000E+00  0.0000E+00  0.0000E+00  0.0000E+00  0.0000E+00  0.0000E+00  0.0000E+00  0.0000E+00  0.0000E+00
    -33.176  0.0000E+00  0.0000E+00  0.0000E+00  0.0000E+00  0.0000E+00  0.0000E+00  0.0000E+00  0.0000E+00  0.0000E+00
    -32.985  0.0000E+00  0.0000E+00  0.0000E+00  0.0000E+00  0.0000E+00  0.0000E+00  0.0000E+00  0.0000E+00  0.0000E+00
    -32.794  0.0000E+00  0.0000E+00  0.0000E+00  0.0000E+00  0.0000E+00  0.0000E+00  0.0000E+00  0.0000E+00  0.0000E+00
    -32.603  0.0000E+00  0.0000E+00  0.0000E+00  0.0000E+00  0.0000E+00  0.0000E+00  0.0000E+00  0.0000E+00  0.0000E+00
    -32.412  0.0000E+00  0.0000E+00  0.0000E+00  0.0000E+00  0.0000E+00  0.0000E+00  0.0000E+00  0.0000E+00  0.0000E+00
    -32.221  0.0000E+00  0.0000E+00  0.0000E+00  0.0000E+00  0.0000E+00  0.0000E+00  0.0000E+00  0.0000E+00  0.0000E+00
    -32.030  0.0000E+00  0.0000E+00  0.0000E+00  0.0000E+00  0.0000E+00  0.0000E+00  0.0000E+00  0.0000E+00  0.0000E+00
    -31.839  0.0000E+00  0.0000E+00  0.0000E+00  0.0000E+00  0.0000E+00  0.0000E+00  0.0000E+00  0.0000E+00  0.0000E+00
    -31.648  0.0000E+00  0.0000E+00  0.0000E+00  0.0000E+00  0.0000E+00  0.0000E+00  0.0000E+00  0.0000E+00  0.0000E+00
    -31.457  0.0000E+00  0.0000E+00  0.0000E+00  0.0000E+00  0.0000E+00  0.0000E+00  0.0000E+00  0.0000E+00  0.0000E+00
    -31.266  0.0000E+00  0.0000E+00  0.0000E+00  0.0000E+00  0.0000E+00  0.0000E+00  0.0000E+00  0.0000E+00  0.0000E+00
    -31.075  0.0000E+00  0.0000E+00  0.0000E+00  0.0000E+00  0.0000E+00  0.0000E+00  0.0000E+00  0.0000E+00  0.0000E+00
    -30.884  0.0000E+00  0.0000E+00  0.0000E+00  0.0000E+00  0.0000E+00  0.0000E+00  0.0000E+00  0.0000E+00  0.0000E+00
    -30.693  0.0000E+00  0.0000E+00  0.0000E+00  0.0000E+00  0.0000E+00  0.0000E+00  0.0000E+00  0.0000E+00  0.0000E+00
    -30.502  0.0000E+00  0.0000E+00  0.0000E+00  0.0000E+00  0.0000E+00  0.0000E+00  0.0000E+00  0.0000E+00  0.0000E+00
    -30.311  0.0000E+00  0.0000E+00  0.0000E+00  0.0000E+00  0.0000E+00  0.0000E+00  0.0000E+00  0.0000E+00  0.0000E+00
    -30.120  0.0000E+00  0.0000E+00  0.0000E+00  0.0000E+00  0.0000E+00  0.0000E+00  0.0000E+00  0.0000E+00  0.0000E+00
    -29.929  0.0000E+00  0.0000E+00  0.0000E+00  0.0000E+00  0.0000E+00  0.0000E+00  0.0000E+00  0.0000E+00  0.0000E+00
    -29.738  0.0000E+00  0.0000E+00  0.0000E+00  0.0000E+00  0.0000E+00  0.0000E+00  0.0000E+00  0.0000E+00  0.0000E+00
    -29.547  0.0000E+00  0.0000E+00  0.0000E+00  0.0000E+00  0.0000E+00  0.0000E+00  0.0000E+00  0.0000E+00  0.0000E+00
    -29.356  0.0000E+00  0.0000E+00  0.0000E+00  0.0000E+00  0.0000E+00  0.0000E+00  0.0000E+00  0.0000E+00  0.0000E+00
    -29.165  0.0000E+00  0.0000E+00  0.0000E+00  0.0000E+00  0.0000E+00  0.0000E+00  0.0000E+00  0.0000E+00  0.0000E+00
    -28.974  0.0000E+00  0.0000E+00  0.0000E+00  0.0000E+00  0.0000E+00  0.0000E+00  0.0000E+00  0.0000E+00  0.0000E+00
    -28.783  0.0000E+00  0.0000E+00  0.0000E+00  0.0000E+00  0.0000E+00  0.0000E+00  0.0000E+00  0.0000E+00  0.0000E+00
    -28.592  0.0000E+00  0.0000E+00  0.0000E+00  0.0000E+00  0.0000E+00  0.0000E+00  0.0000E+00  0.0000E+00  0.0000E+00
    -28.401  0.0000E+00  0.0000E+00  0.0000E+00  0.0000E+00  0.0000E+00  0.0000E+00  0.0000E+00  0.0000E+00  0.0000E+00
    -28.209  0.0000E+00  0.0000E+00  0.0000E+00  0.0000E+00  0.0000E+00  0.0000E+00  0.0000E+00  0.0000E+00  0.0000E+00
    -28.018  0.0000E+00  0.0000E+00  0.0000E+00  0.0000E+00  0.0000E+00  0.0000E+00  0.0000E+00  0.0000E+00  0.0000E+00
    -27.827  0.0000E+00  0.0000E+00  0.0000E+00  0.0000E+00  0.0000E+00  0.0000E+00  0.0000E+00  0.0000E+00  0.0000E+00
    -27.636  0.0000E+00  0.0000E+00  0.0000E+00  0.0000E+00  0.0000E+00  0.0000E+00  0.0000E+00  0.0000E+00  0.0000E+00
    -27.445  0.0000E+00  0.0000E+00  0.0000E+00  0.0000E+00  0.0000E+00  0.0000E+00  0.0000E+00  0.0000E+00  0.0000E+00
    -27.254  0.0000E+00  0.0000E+00  0.0000E+00  0.0000E+00  0.0000E+00  0.0000E+00  0.0000E+00  0.0000E+00  0.0000E+00
    -27.063  0.0000E+00  0.0000E+00  0.0000E+00  0.0000E+00  0.0000E+00  0.0000E+00  0.0000E+00  0.0000E+00  0.0000E+00
    -26.872  0.0000E+00  0.0000E+00  0.0000E+00  0.0000E+00  0.0000E+00  0.0000E+00  0.0000E+00  0.0000E+00  0.0000E+00
    -26.681  0.0000E+00  0.0000E+00  0.0000E+00  0.0000E+00  0.0000E+00  0.0000E+00  0.0000E+00  0.0000E+00  0.0000E+00
    -26.490  0.0000E+00  0.0000E+00  0.0000E+00  0.0000E+00  0.0000E+00  0.0000E+00  0.0000E+00  0.0000E+00  0.0000E+00
    -26.299  0.0000E+00  0.0000E+00  0.0000E+00  0.0000E+00  0.0000E+00  0.0000E+00  0.0000E+00  0.0000E+00  0.0000E+00
    -26.108  0.0000E+00  0.0000E+00  0.0000E+00  0.0000E+00  0.0000E+00  0.0000E+00  0.0000E+00  0.0000E+00  0.0000E+00
    -25.917  0.0000E+00  0.0000E+00  0.0000E+00  0.0000E+00  0.0000E+00  0.0000E+00  0.0000E+00  0.0000E+00  0.0000E+00
    -25.726  0.0000E+00  0.0000E+00  0.0000E+00  0.0000E+00  0.0000E+00  0.0000E+00  0.0000E+00  0.0000E+00  0.0000E+00
    -25.535  0.0000E+00  0.0000E+00  0.0000E+00  0.0000E+00  0.0000E+00  0.0000E+00  0.0000E+00  0.0000E+00  0.0000E+00
    -25.344  0.0000E+00  0.0000E+00  0.0000E+00  0.0000E+00  0.0000E+00  0.0000E+00  0.0000E+00  0.0000E+00  0.0000E+00
    -25.153  0.0000E+00  0.0000E+00  0.0000E+00  0.0000E+00  0.0000E+00  0.0000E+00  0.0000E+00  0.0000E+00  0.0000E+00
    -24.962  0.0000E+00  0.0000E+00  0.0000E+00  0.0000E+00  0.0000E+00  0.0000E+00  0.0000E+00  0.0000E+00  0.0000E+00
    -24.771  0.0000E+00  0.0000E+00  0.0000E+00  0.0000E+00  0.0000E+00  0.0000E+00  0.0000E+00  0.0000E+00  0.0000E+00
    -24.580  0.0000E+00  0.0000E+00  0.0000E+00  0.0000E+00  0.0000E+00  0.0000E+00  0.0000E+00  0.0000E+00  0.0000E+00
    -24.389  0.0000E+00  0.0000E+00  0.0000E+00  0.0000E+00  0.0000E+00  0.0000E+00  0.0000E+00  0.0000E+00  0.0000E+00
    -24.198  0.0000E+00  0.0000E+00  0.0000E+00  0.0000E+00  0.0000E+00  0.0000E+00  0.0000E+00  0.0000E+00  0.0000E+00
    -24.007  0.0000E+00  0.0000E+00  0.0000E+00  0.0000E+00  0.0000E+00  0.0000E+00  0.0000E+00  0.0000E+00  0.0000E+00
    -23.816  0.0000E+00  0.0000E+00  0.0000E+00  0.0000E+00  0.0000E+00  0.0000E+00  0.0000E+00  0.0000E+00  0.0000E+00
    -23.625  0.0000E+00  0.0000E+00  0.0000E+00  0.0000E+00  0.0000E+00  0.0000E+00  0.0000E+00  0.0000E+00  0.0000E+00
    -23.434  0.0000E+00  0.0000E+00  0.0000E+00  0.0000E+00  0.0000E+00  0.0000E+00  0.0000E+00  0.0000E+00  0.0000E+00
    -23.243  0.0000E+00  0.0000E+00  0.0000E+00  0.0000E+00  0.0000E+00  0.0000E+00  0.0000E+00  0.0000E+00  0.0000E+00
    -23.052  0.0000E+00  0.0000E+00  0.0000E+00  0.0000E+00  0.0000E+00  0.0000E+00  0.0000E+00  0.0000E+00  0.0000E+00
    -22.861  0.0000E+00  0.0000E+00  0.0000E+00  0.0000E+00  0.0000E+00  0.0000E+00  0.0000E+00  0.0000E+00  0.0000E+00
    -22.670  0.0000E+00  0.0000E+00  0.0000E+00  0.0000E+00  0.0000E+00  0.0000E+00  0.0000E+00  0.0000E+00  0.0000E+00
    -22.479  0.0000E+00  0.0000E+00  0.0000E+00  0.0000E+00  0.0000E+00  0.0000E+00  0.0000E+00  0.0000E+00  0.0000E+00
    -22.288  0.0000E+00  0.0000E+00  0.0000E+00  0.0000E+00  0.0000E+00  0.0000E+00  0.0000E+00  0.0000E+00  0.0000E+00
    -22.097  0.0000E+00  0.0000E+00  0.0000E+00  0.0000E+00  0.0000E+00  0.0000E+00  0.0000E+00  0.0000E+00  0.0000E+00
    -21.906  0.0000E+00  0.0000E+00  0.0000E+00  0.0000E+00  0.0000E+00  0.0000E+00  0.0000E+00  0.0000E+00  0.0000E+00
    -21.715  0.0000E+00  0.0000E+00  0.0000E+00  0.0000E+00  0.0000E+00  0.0000E+00  0.0000E+00  0.0000E+00  0.0000E+00
    -21.524  0.0000E+00  0.0000E+00  0.0000E+00  0.0000E+00  0.0000E+00  0.0000E+00  0.0000E+00  0.0000E+00  0.0000E+00
    -21.333  0.0000E+00  0.0000E+00  0.0000E+00  0.0000E+00  0.0000E+00  0.0000E+00  0.0000E+00  0.0000E+00  0.0000E+00
    -21.142  0.0000E+00  0.0000E+00  0.0000E+00  0.0000E+00  0.0000E+00  0.0000E+00  0.0000E+00  0.0000E+00  0.0000E+00
    -20.951  0.0000E+00  0.0000E+00  0.0000E+00  0.0000E+00  0.0000E+00  0.0000E+00  0.0000E+00  0.0000E+00  0.0000E+00
    -20.760  0.0000E+00  0.0000E+00  0.0000E+00  0.0000E+00  0.0000E+00  0.0000E+00  0.0000E+00  0.0000E+00  0.0000E+00
    -20.569  0.0000E+00  0.0000E+00  0.0000E+00  0.0000E+00  0.0000E+00  0.0000E+00  0.0000E+00  0.0000E+00  0.0000E+00
    -20.378  0.0000E+00  0.0000E+00  0.0000E+00  0.0000E+00  0.0000E+00  0.0000E+00  0.0000E+00  0.0000E+00  0.0000E+00
    -20.187  0.0000E+00  0.0000E+00  0.0000E+00  0.0000E+00  0.0000E+00  0.0000E+00  0.0000E+00  0.0000E+00  0.0000E+00
    -19.996  0.0000E+00  0.0000E+00  0.0000E+00  0.0000E+00  0.0000E+00  0.0000E+00  0.0000E+00  0.0000E+00  0.0000E+00
    -19.805  0.0000E+00  0.0000E+00  0.0000E+00  0.0000E+00  0.0000E+00  0.0000E+00  0.0000E+00  0.0000E+00  0.0000E+00
    -19.614  0.0000E+00  0.0000E+00  0.0000E+00  0.0000E+00  0.0000E+00  0.0000E+00  0.0000E+00  0.0000E+00  0.0000E+00
    -19.423  0.0000E+00  0.0000E+00  0.0000E+00  0.0000E+00  0.0000E+00  0.0000E+00  0.0000E+00  0.0000E+00  0.0000E+00
    -19.232  0.0000E+00  0.0000E+00  0.0000E+00  0.0000E+00  0.0000E+00  0.0000E+00  0.0000E+00  0.0000E+00  0.0000E+00
    -19.041  0.0000E+00  0.0000E+00  0.0000E+00  0.0000E+00  0.0000E+00  0.0000E+00  0.0000E+00  0.0000E+00  0.0000E+00
    -18.850  0.0000E+00  0.0000E+00  0.0000E+00  0.0000E+00  0.0000E+00  0.0000E+00  0.0000E+00  0.0000E+00  0.0000E+00
    -18.659  0.0000E+00  0.0000E+00  0.0000E+00  0.0000E+00  0.0000E+00  0.0000E+00  0.0000E+00  0.0000E+00  0.0000E+00
    -18.468  0.0000E+00  0.0000E+00  0.0000E+00  0.0000E+00  0.0000E+00  0.0000E+00  0.0000E+00  0.0000E+00  0.0000E+00
    -18.277  0.0000E+00  0.0000E+00  0.0000E+00  0.0000E+00  0.0000E+00  0.0000E+00  0.0000E+00  0.0000E+00  0.0000E+00
    -18.086  0.0000E+00  0.0000E+00  0.0000E+00  0.0000E+00  0.0000E+00  0.0000E+00  0.0000E+00  0.0000E+00  0.0000E+00
    -17.895  0.0000E+00  0.0000E+00  0.0000E+00  0.0000E+00  0.0000E+00  0.0000E+00  0.0000E+00  0.0000E+00  0.0000E+00
    -17.704  0.0000E+00  0.0000E+00  0.0000E+00  0.0000E+00  0.0000E+00  0.0000E+00  0.0000E+00  0.0000E+00  0.0000E+00
    -17.513  0.0000E+00  0.0000E+00  0.0000E+00  0.0000E+00  0.0000E+00  0.0000E+00  0.0000E+00  0.0000E+00  0.0000E+00
    -17.322  0.0000E+00  0.0000E+00  0.0000E+00  0.0000E+00  0.0000E+00  0.0000E+00  0.0000E+00  0.0000E+00  0.0000E+00