       N       E                     dE             d eps       ncg     rms          rms(c)
DAV:   1    -0.621952548768E+02   -0.62195E+02   -0.15090E+03 22548   0.389E+02    0.304E+01
RMM:   2    -0.998624549275E+02   -0.37667E+02   -0.39067E+02 18807   0.943E+01    0.221E+01
RMM:   3    -0.955799020854E+02    0.42826E+01   -0.33756E+01 20577   0.288E+01    0.354E+01
RMM:   4    -0.908221972687E+02    0.47577E+01   -0.75176E+00 19564   0.126E+01    0.187E+01
RMM:   5    -0.951597303321E+02   -0.43375E+01   -0.73542E+00 19368   0.108E+01    0.329E+01
RMM:   6    -0.906795205133E+02    0.44802E+01   -0.45015E+00 19612   0.910E+00    0.109E+01
RMM:   7    -0.903961921795E+02    0.28333E+00   -0.26214E+00 20570   0.651E+00    0.106E+01
RMM:   8    -0.901048933853E+02    0.29130E+00   -0.63840E-01 20339   0.322E+00    0.512E+00
RMM:   9    -0.900217835099E+02    0.83110E-01   -0.15095E-01 20233   0.164E+00    0.158E+00
RMM:  10    -0.900175043371E+02    0.42792E-02   -0.27348E-02 21110   0.508E-01    0.127E+00
RMM:  11    -0.900159819144E+02    0.15224E-02   -0.16838E-02 19067   0.484E-01    0.726E-01
