<?xml version="1.0" encoding="ISO-8859-1"?>
<modeling>
 <generator>
  <i name="program" type="string">vasp </i>
  <i name="version" type="string">5.4.4.18Apr17-6-g9f103f2a35  </i>
  <i name="subversion" type="string">(build Nov 08 2022 17:27:33) complex            parallel </i>
  <i name="platform" type="string">LinuxIFC </i>
  <i name="date" type="string">2022 11 22 </i>
  <i name="time" type="string">17:18:06 </i>
 </generator>
 <incar>
  <i type="string" name="PREC">accurate</i>
  <i type="string" name="ALGO"> Fast</i>
  <i type="int" name="ISPIN">     1</i>
  <i type="int" name="NELM">   100</i>
  <i type="int" name="IBRION">     2</i>
  <i name="EDIFF">      0.00000100</i>
  <i name="EDIFFG">     -0.03000000</i>
  <i type="int" name="NSW">   199</i>
  <i type="int" name="ISIF">     3</i>
  <i type="int" name="ISYM">     0</i>
  <i name="ENCUT">    520.00000000</i>
  <i name="ENAUG">   1040.00000000</i>
  <v name="MAGMOM">      0.00000000      0.00000000      0.00000000      0.00000000      0.00000000      0.00000000      0.00000000      0.00000000      0.00000000      0.00000000      0.00000000      0.00000000</v>
  <i type="string" name="LREAL"> Auto</i>
  <i type="int" name="ISMEAR">     0</i>
  <i name="SIGMA">      0.01000000</i>
  <i name="KSPACING">      0.22000000</i>
  <i type="int" name="LMAXMIX">     4</i>
  <i type="logical" name="LWAVE"> T  </i>
  <i type="int" name="LORBIT">    11</i>
  <i type="logical" name="LASPH"> T  </i>
  <v type="int" name="KPOINT_BSE">    -1     0     0     0</v>
  <i type="int" name="NELM">   100</i>
  <i type="string" name="GGA"> Pe</i>
  <i type="logical" name="LASPH"> T  </i>
 </incar>
 <structure name="primitive_cell" >
  <crystal>
   <varray name="basis" >
    <v>       2.91633100       0.00000000       0.00000000 </v>
    <v>      -0.00000100       4.58096600       0.00014500 </v>
    <v>       0.00000200       0.00030000       9.43439300 </v>
   </varray>
   <i name="volume">    126.03984071 </i>
   <varray name="rec_basis" >
    <v>       0.34289661       0.00000007      -0.00000007 </v>
    <v>       0.00000000       0.21829457      -0.00000694 </v>
    <v>       0.00000000      -0.00000336       0.10599516 </v>
   </varray>
  </crystal>
  <varray name="positions" >
   <v>       0.24999086       0.16456973      -0.15166380 </v>
   <v>       0.24998963       0.39498123      -0.29021953 </v>
   <v>      -0.25000135       0.27082388      -0.06565072 </v>
   <v>      -0.25002306      -0.10505111      -0.20979569 </v>
   <v>       0.25002796      -0.27086452       0.06566199 </v>
   <v>       0.25001928      -0.22913440      -0.43436974 </v>
   <v>      -0.25000799      -0.33529752      -0.34839239 </v>
   <v>       0.24999230       0.10504411       0.20976212 </v>
   <v>      -0.24997616      -0.16462185       0.15167606 </v>
   <v>      -0.25000308       0.22912195       0.43437312 </v>
   <v>       0.24998448       0.33537278       0.34834174 </v>
   <v>      -0.24999287      -0.39494331       0.29027782 </v>
  </varray>
 </structure>
 <varray name="primitive_index" >
  <v type="int" >        1 </v>
  <v type="int" >       10 </v>
  <v type="int" >        6 </v>
  <v type="int" >       12 </v>
  <v type="int" >        7 </v>
  <v type="int" >        5 </v>
  <v type="int" >        3 </v>
  <v type="int" >        9 </v>
  <v type="int" >        2 </v>
  <v type="int" >        8 </v>
  <v type="int" >        4 </v>
  <v type="int" >       11 </v>
 </varray>
 <kpoints>
  <generation param="Gamma">
   <v type="int" name="divisions">      10        7        4 </v>
   <v name="usershift">      0.00000000       0.00000000       0.00000000 </v>
   <v name="genvec1">      0.10000000       0.00000000       0.00000000 </v>
   <v name="genvec2">      0.00000000       0.14285714       0.00000000 </v>
   <v name="genvec3">      0.00000000       0.00000000       0.25000000 </v>
   <v name="shift">      0.00000000       0.00000000       0.00000000 </v>
  </generation>
  <varray name="kpointlist" >
   <v>       0.00000000       0.00000000       0.00000000 </v>
   <v>       0.10000000      -0.00000000       0.00000000 </v>
   <v>       0.20000000       0.00000000      -0.00000000 </v>
   <v>       0.30000000      -0.00000000       0.00000000 </v>
   <v>       0.40000000       0.00000000      -0.00000000 </v>
   <v>       0.50000000      -0.00000000      -0.00000000 </v>
   <v>       0.00000000       0.14285714       0.00000000 </v>
   <v>       0.10000000       0.14285714       0.00000000 </v>
   <v>       0.20000000       0.14285714       0.00000000 </v>
   <v>       0.30000000       0.14285714       0.00000000 </v>
   <v>       0.40000000       0.14285714       0.00000000 </v>
   <v>       0.50000000       0.14285714       0.00000000 </v>
   <v>      -0.40000000       0.14285714       0.00000000 </v>
   <v>      -0.30000000       0.14285714       0.00000000 </v>
   <v>      -0.20000000       0.14285714       0.00000000 </v>
   <v>      -0.10000000       0.14285714      -0.00000000 </v>
   <v>       0.00000000       0.28571429       0.00000000 </v>
   <v>       0.10000000       0.28571429      -0.00000000 </v>
   <v>       0.20000000       0.28571429       0.00000000 </v>
   <v>       0.30000000       0.28571429       0.00000000 </v>
   <v>       0.40000000       0.28571429       0.00000000 </v>
   <v>       0.50000000       0.28571429       0.00000000 </v>
   <v>      -0.40000000       0.28571429      -0.00000000 </v>
   <v>      -0.30000000       0.28571429       0.00000000 </v>
   <v>      -0.20000000       0.28571429      -0.00000000 </v>
   <v>      -0.10000000       0.28571429       0.00000000 </v>
   <v>       0.00000000       0.42857143       0.00000000 </v>
   <v>       0.10000000       0.42857143      -0.00000000 </v>
   <v>       0.20000000       0.42857143       0.00000000 </v>
   <v>       0.30000000       0.42857143       0.00000000 </v>
   <v>       0.40000000       0.42857143       0.00000000 </v>
   <v>       0.50000000       0.42857143       0.00000000 </v>
   <v>      -0.40000000       0.42857143      -0.00000000 </v>
   <v>      -0.30000000       0.42857143      -0.00000000 </v>
   <v>      -0.20000000       0.42857143      -0.00000000 </v>
   <v>      -0.10000000       0.42857143       0.00000000 </v>
   <v>       0.00000000       0.00000000       0.25000000 </v>
   <v>       0.10000000       0.00000000       0.25000000 </v>
   <v>       0.20000000       0.00000000       0.25000000 </v>
   <v>       0.30000000       0.00000000       0.25000000 </v>
   <v>       0.40000000      -0.00000000       0.25000000 </v>
   <v>       0.50000000       0.00000000       0.25000000 </v>
   <v>      -0.40000000       0.00000000       0.25000000 </v>
   <v>      -0.30000000       0.00000000       0.25000000 </v>
   <v>      -0.20000000       0.00000000       0.25000000 </v>
   <v>      -0.10000000       0.00000000       0.25000000 </v>
   <v>       0.00000000       0.14285714       0.25000000 </v>
   <v>       0.10000000       0.14285714       0.25000000 </v>
   <v>       0.20000000       0.14285714       0.25000000 </v>
   <v>       0.30000000       0.14285714       0.25000000 </v>
   <v>       0.40000000       0.14285714       0.25000000 </v>
   <v>       0.50000000       0.14285714       0.25000000 </v>
   <v>      -0.40000000       0.14285714       0.25000000 </v>
   <v>      -0.30000000       0.14285714       0.25000000 </v>
   <v>      -0.20000000       0.14285714       0.25000000 </v>
   <v>      -0.10000000       0.14285714       0.25000000 </v>
   <v>       0.00000000       0.28571429       0.25000000 </v>
   <v>       0.10000000       0.28571429       0.25000000 </v>
   <v>       0.20000000       0.28571429       0.25000000 </v>
   <v>       0.30000000       0.28571429       0.25000000 </v>
   <v>       0.40000000       0.28571429       0.25000000 </v>
   <v>       0.50000000       0.28571429       0.25000000 </v>
   <v>      -0.40000000       0.28571429       0.25000000 </v>
   <v>      -0.30000000       0.28571429       0.25000000 </v>
   <v>      -0.20000000       0.28571429       0.25000000 </v>
   <v>      -0.10000000       0.28571429       0.25000000 </v>
   <v>       0.00000000       0.42857143       0.25000000 </v>
   <v>       0.10000000       0.42857143       0.25000000 </v>
   <v>       0.20000000       0.42857143       0.25000000 </v>
   <v>       0.30000000       0.42857143       0.25000000 </v>
   <v>       0.40000000       0.42857143       0.25000000 </v>
   <v>       0.50000000       0.42857143       0.25000000 </v>
   <v>      -0.40000000       0.42857143       0.25000000 </v>
   <v>      -0.30000000       0.42857143       0.25000000 </v>
   <v>      -0.20000000       0.42857143       0.25000000 </v>
   <v>      -0.10000000       0.42857143       0.25000000 </v>
   <v>       0.00000000      -0.42857143       0.25000000 </v>
   <v>       0.10000000      -0.42857143       0.25000000 </v>
   <v>       0.20000000      -0.42857143       0.25000000 </v>
   <v>       0.30000000      -0.42857143       0.25000000 </v>
   <v>       0.40000000      -0.42857143       0.25000000 </v>
   <v>       0.50000000      -0.42857143       0.25000000 </v>
   <v>      -0.40000000      -0.42857143       0.25000000 </v>
   <v>      -0.30000000      -0.42857143       0.25000000 </v>
   <v>      -0.20000000      -0.42857143       0.25000000 </v>
   <v>      -0.10000000      -0.42857143       0.25000000 </v>
   <v>       0.00000000      -0.28571429       0.25000000 </v>
   <v>       0.10000000      -0.28571429       0.25000000 </v>
   <v>       0.20000000      -0.28571429       0.25000000 </v>
   <v>       0.30000000      -0.28571429       0.25000000 </v>
   <v>       0.40000000      -0.28571429       0.25000000 </v>
   <v>       0.50000000      -0.28571429       0.25000000 </v>
   <v>      -0.40000000      -0.28571429       0.25000000 </v>
   <v>      -0.30000000      -0.28571429       0.25000000 </v>
   <v>      -0.20000000      -0.28571429       0.25000000 </v>
   <v>      -0.10000000      -0.28571429       0.25000000 </v>
   <v>       0.00000000      -0.14285714       0.25000000 </v>
   <v>       0.10000000      -0.14285714       0.25000000 </v>
   <v>       0.20000000      -0.14285714       0.25000000 </v>
   <v>       0.30000000      -0.14285714       0.25000000 </v>
   <v>       0.40000000      -0.14285714       0.25000000 </v>
   <v>       0.50000000      -0.14285714       0.25000000 </v>
   <v>      -0.40000000      -0.14285714       0.25000000 </v>
   <v>      -0.30000000      -0.14285714       0.25000000 </v>
   <v>      -0.20000000      -0.14285714       0.25000000 </v>
   <v>      -0.10000000      -0.14285714       0.25000000 </v>
   <v>       0.00000000       0.00000000       0.50000000 </v>
   <v>       0.10000000       0.00000000       0.50000000 </v>
   <v>       0.20000000       0.00000000       0.50000000 </v>
   <v>       0.30000000       0.00000000       0.50000000 </v>
   <v>       0.40000000       0.00000000       0.50000000 </v>
   <v>       0.50000000       0.00000000       0.50000000 </v>
   <v>       0.00000000       0.14285714       0.50000000 </v>
   <v>       0.10000000       0.14285714       0.50000000 </v>
   <v>       0.20000000       0.14285714       0.50000000 </v>
   <v>       0.30000000       0.14285714       0.50000000 </v>
   <v>       0.40000000       0.14285714       0.50000000 </v>
   <v>       0.50000000       0.14285714       0.50000000 </v>
   <v>      -0.40000000       0.14285714       0.50000000 </v>
   <v>      -0.30000000       0.14285714       0.50000000 </v>
   <v>      -0.20000000       0.14285714       0.50000000 </v>
   <v>      -0.10000000       0.14285714       0.50000000 </v>
   <v>       0.00000000       0.28571429       0.50000000 </v>
   <v>       0.10000000       0.28571429       0.50000000 </v>
   <v>       0.20000000       0.28571429       0.50000000 </v>
   <v>       0.30000000       0.28571429       0.50000000 </v>
   <v>       0.40000000       0.28571429       0.50000000 </v>
   <v>       0.50000000       0.28571429       0.50000000 </v>
   <v>      -0.40000000       0.28571429       0.50000000 </v>
   <v>      -0.30000000       0.28571429       0.50000000 </v>
   <v>      -0.20000000       0.28571429       0.50000000 </v>
   <v>      -0.10000000       0.28571429       0.50000000 </v>
   <v>       0.00000000       0.42857143       0.50000000 </v>
   <v>       0.10000000       0.42857143       0.50000000 </v>
   <v>       0.20000000       0.42857143       0.50000000 </v>
   <v>       0.30000000       0.42857143       0.50000000 </v>
   <v>       0.40000000       0.42857143       0.50000000 </v>
   <v>       0.50000000       0.42857143       0.50000000 </v>
   <v>      -0.40000000       0.42857143       0.50000000 </v>
   <v>      -0.30000000       0.42857143       0.50000000 </v>
   <v>      -0.20000000       0.42857143       0.50000000 </v>
   <v>      -0.10000000       0.42857143       0.50000000 </v>
  </varray>
  <varray name="weights" >
   <v>       0.00357143 </v>
   <v>       0.00714286 </v>
   <v>       0.00714286 </v>
   <v>       0.00714286 </v>
   <v>       0.00714286 </v>
   <v>       0.00357143 </v>
   <v>       0.00714286 </v>
   <v>       0.00714286 </v>
   <v>       0.00714286 </v>
   <v>       0.00714286 </v>
   <v>       0.00714286 </v>
   <v>       0.00714286 </v>
   <v>       0.00714286 </v>
   <v>       0.00714286 </v>
   <v>       0.00714286 </v>
   <v>       0.00714286 </v>
   <v>       0.00714286 </v>
   <v>       0.00714286 </v>
   <v>       0.00714286 </v>
   <v>       0.00714286 </v>
   <v>       0.00714286 </v>
   <v>       0.00714286 </v>
   <v>       0.00714286 </v>
   <v>       0.00714286 </v>
   <v>       0.00714286 </v>
   <v>       0.00714286 </v>
   <v>       0.00714286 </v>
   <v>       0.00714286 </v>
   <v>       0.00714286 </v>
   <v>       0.00714286 </v>
   <v>       0.00714286 </v>
   <v>       0.00714286 </v>
   <v>       0.00714286 </v>
   <v>       0.00714286 </v>
   <v>       0.00714286 </v>
   <v>       0.00714286 </v>
   <v>       0.00714286 </v>
   <v>       0.00714286 </v>
   <v>       0.00714286 </v>
   <v>       0.00714286 </v>
   <v>       0.00714286 </v>
   <v>       0.00714286 </v>
   <v>       0.00714286 </v>
   <v>       0.00714286 </v>
   <v>       0.00714286 </v>
   <v>       0.00714286 </v>
   <v>       0.00714286 </v>
   <v>       0.00714286 </v>
   <v>       0.00714286 </v>
   <v>       0.00714286 </v>
   <v>       0.00714286 </v>
   <v>       0.00714286 </v>
   <v>       0.00714286 </v>
   <v>       0.00714286 </v>
   <v>       0.00714286 </v>
   <v>       0.00714286 </v>
   <v>       0.00714286 </v>
   <v>       0.00714286 </v>
   <v>       0.00714286 </v>
   <v>       0.00714286 </v>
   <v>       0.00714286 </v>
   <v>       0.00714286 </v>
   <v>       0.00714286 </v>
   <v>       0.00714286 </v>
   <v>       0.00714286 </v>
   <v>       0.00714286 </v>
   <v>       0.00714286 </v>
   <v>       0.00714286 </v>
   <v>       0.00714286 </v>
   <v>       0.00714286 </v>
   <v>       0.00714286 </v>
   <v>       0.00714286 </v>
   <v>       0.00714286 </v>
   <v>       0.00714286 </v>
   <v>       0.00714286 </v>
   <v>       0.00714286 </v>
   <v>       0.00714286 </v>
   <v>       0.00714286 </v>
   <v>       0.00714286 </v>
   <v>       0.00714286 </v>
   <v>       0.00714286 </v>
   <v>       0.00714286 </v>
   <v>       0.00714286 </v>
   <v>       0.00714286 </v>
   <v>       0.00714286 </v>
   <v>       0.00714286 </v>
   <v>       0.00714286 </v>
   <v>       0.00714286 </v>
   <v>       0.00714286 </v>
   <v>       0.00714286 </v>
   <v>       0.00714286 </v>
   <v>       0.00714286 </v>
   <v>       0.00714286 </v>
   <v>       0.00714286 </v>
   <v>       0.00714286 </v>
   <v>       0.00714286 </v>
   <v>       0.00714286 </v>
   <v>       0.00714286 </v>
   <v>       0.00714286 </v>
   <v>       0.00714286 </v>
   <v>       0.00714286 </v>
   <v>       0.00714286 </v>
   <v>       0.00714286 </v>
   <v>       0.00714286 </v>
   <v>       0.00714286 </v>
   <v>       0.00714286 </v>
   <v>       0.00357143 </v>
   <v>       0.00714286 </v>
   <v>       0.00714286 </v>
   <v>       0.00714286 </v>
   <v>       0.00714286 </v>
   <v>       0.00357143 </v>
   <v>       0.00714286 </v>
   <v>       0.00714286 </v>
   <v>       0.00714286 </v>
   <v>       0.00714286 </v>
   <v>       0.00714286 </v>
   <v>       0.00714286 </v>
   <v>       0.00714286 </v>
   <v>       0.00714286 </v>
   <v>       0.00714286 </v>
   <v>       0.00714286 </v>
   <v>       0.00714286 </v>
   <v>       0.00714286 </v>
   <v>       0.00714286 </v>
   <v>       0.00714286 </v>
   <v>       0.00714286 </v>
   <v>       0.00714286 </v>
   <v>       0.00714286 </v>
   <v>       0.00714286 </v>
   <v>       0.00714286 </v>
   <v>       0.00714286 </v>
   <v>       0.00714286 </v>
   <v>       0.00714286 </v>
   <v>       0.00714286 </v>
   <v>       0.00714286 </v>
   <v>       0.00714286 </v>
   <v>       0.00714286 </v>
   <v>       0.00714286 </v>
   <v>       0.00714286 </v>
   <v>       0.00714286 </v>
   <v>       0.00714286 </v>
  </varray>
 </kpoints>
 <parameters>
  <separator name="general" >
   <i type="string" name="SYSTEM">unknown system</i>
   <i type="logical" name="LCOMPAT"> F  </i>
  </separator>
  <separator name="electronic" >
   <i type="string" name="PREC">accura</i>
   <i name="ENMAX">    520.00000000</i>
   <i name="ENAUG">   1040.00000000</i>
   <i name="EDIFF">      0.00000100</i>
   <i type="int" name="IALGO">    68</i>
   <i type="int" name="IWAVPR">    11</i>
   <i type="int" name="NBANDS">    60</i>
   <i name="NELECT">    100.00000000</i>
   <i type="int" name="TURBO">     0</i>
   <i type="int" name="IRESTART">     0</i>
   <i type="int" name="NREBOOT">     0</i>
   <i type="int" name="NMIN">     0</i>
   <i name="EREF">      0.00000000</i>
   <separator name="electronic smearing" >
    <i type="int" name="ISMEAR">     0</i>
    <i name="SIGMA">      0.01000000</i>
    <i name="KSPACING">      0.22000000</i>
    <i type="logical" name="KGAMMA"> T  </i>
   </separator>
   <separator name="electronic projectors" >
    <i type="logical" name="LREAL"> T  </i>
    <v name="ROPT">     -0.00025000     -0.00025000</v>
    <i type="int" name="LMAXPAW">  -100</i>
    <i type="int" name="LMAXMIX">     4</i>
    <i type="logical" name="NLSPLINE"> F  </i>
   </separator>
   <separator name="electronic startup" >
    <i type="int" name="ISTART">     1</i>
    <i type="int" name="ICHARG">     0</i>
    <i type="int" name="INIWAV">     1</i>
   </separator>
   <separator name="electronic spin" >
    <i type="int" name="ISPIN">     1</i>
    <i type="logical" name="LNONCOLLINEAR"> F  </i>
    <v name="MAGMOM">      0.00000000      0.00000000      0.00000000      0.00000000      0.00000000      0.00000000      0.00000000      0.00000000      0.00000000      0.00000000      0.00000000      0.00000000</v>
    <i name="NUPDOWN">     -1.00000000</i>
    <i type="logical" name="LSORBIT"> F  </i>
    <v name="SAXIS">      0.00000000      0.00000000      1.00000000</v>
    <i type="logical" name="LSPIRAL"> F  </i>
    <v name="QSPIRAL">      0.00000000      0.00000000      0.00000000</v>
    <i type="logical" name="LZEROZ"> F  </i>
   </separator>
   <separator name="electronic exchange-correlation" >
    <i type="logical" name="LASPH"> T  </i>
    <i type="logical" name="LMETAGGA"> F  </i>
   </separator>
   <separator name="electronic convergence" >
    <i type="int" name="NELM">   100</i>
    <i type="int" name="NELMDL">     0</i>
    <i type="int" name="NELMIN">     2</i>
    <i name="ENINI">    520.00000000</i>
    <separator name="electronic convergence detail" >
     <i type="logical" name="LDIAG"> T  </i>
     <i type="logical" name="LSUBROT"> F  </i>
     <i name="WEIMIN">      0.00100000</i>
     <i name="EBREAK">      0.00000000</i>
     <i name="DEPER">      0.30000000</i>
     <i type="int" name="NRMM">     4</i>
     <i name="TIME">      0.40000000</i>
    </separator>
   </separator>
   <separator name="electronic mixer" >
    <i name="AMIX">      0.40000000</i>
    <i name="BMIX">      1.00000000</i>
    <i name="AMIN">      0.10000000</i>
    <i name="AMIX_MAG">      1.60000000</i>
    <i name="BMIX_MAG">      1.00000000</i>
    <separator name="electronic mixer details" >
     <i type="int" name="IMIX">     4</i>
     <i type="logical" name="MIXFIRST"> F  </i>
     <i type="int" name="MAXMIX">   -45</i>
     <i name="WC">    100.00000000</i>
     <i type="int" name="INIMIX">     1</i>
     <i type="int" name="MIXPRE">     1</i>
     <i type="int" name="MREMOVE">     5</i>
    </separator>
   </separator>
   <separator name="electronic dipolcorrection" >
    <i type="logical" name="LDIPOL"> F  </i>
    <i type="logical" name="LMONO"> F  </i>
    <i type="int" name="IDIPOL">     0</i>
    <i name="EPSILON">      1.00000000</i>
    <v name="DIPOL">   -100.00000000   -100.00000000   -100.00000000</v>
    <i name="EFIELD">      0.00000000</i>
   </separator>
  </separator>
  <separator name="grids" >
   <i type="int" name="NGX">    24</i>
   <i type="int" name="NGY">    36</i>
   <i type="int" name="NGZ">    70</i>
   <i type="int" name="NGXF">    48</i>
   <i type="int" name="NGYF">    72</i>
   <i type="int" name="NGZF">   140</i>
   <i type="logical" name="ADDGRID"> F  </i>
  </separator>
  <separator name="ionic" >
   <i type="int" name="NSW">   199</i>
   <i type="int" name="IBRION">     2</i>
   <i type="int" name="MDALGO">     0</i>
   <i type="int" name="ISIF">     3</i>
   <i name="PSTRESS">      0.00000000</i>
   <i name="EDIFFG">     -0.03000000</i>
   <i type="int" name="NFREE">     1</i>
   <i name="POTIM">      0.50000000</i>
   <i name="SMASS">     -3.00000000</i>
   <i name="SCALEE">      1.00000000</i>
  </separator>
  <separator name="ionic md" >
   <i name="TEBEG">      0.00010000</i>
   <i name="TEEND">      0.00010000</i>
   <i type="int" name="NBLOCK">     1</i>
   <i type="int" name="KBLOCK">   199</i>
   <i type="int" name="NPACO">   256</i>
   <i name="APACO">     16.00000000</i>
  </separator>
  <separator name="symmetry" >
   <i type="int" name="ISYM">     0</i>
   <i name="SYMPREC">      0.00001000</i>
  </separator>
  <separator name="dos" >
   <i type="int" name="LORBIT">    11</i>
   <v name="RWIGS">     -1.00000000     -1.00000000</v>
   <i type="int" name="NEDOS">   301</i>
   <i name="EMIN">     10.00000000</i>
   <i name="EMAX">    -10.00000000</i>
   <i name="EFERMI">      0.00000000</i>
  </separator>
  <separator name="writing" >
   <i type="int" name="NWRITE">     2</i>
   <i type="logical" name="LWAVE"> T  </i>
   <i type="logical" name="LDOWNSAMPLE"> F  </i>
   <i type="logical" name="LCHARG"> T  </i>
   <i type="logical" name="LPARD"> F  </i>
   <i type="logical" name="LVTOT"> F  </i>
   <i type="logical" name="LVHAR"> F  </i>
   <i type="logical" name="LELF"> F  </i>
   <i type="logical" name="LOPTICS"> F  </i>
   <v name="STM">      0.00000000      0.00000000      0.00000000      0.00000000      0.00000000      0.00000000      0.00000000</v>
  </separator>
  <separator name="performance" >
   <i type="int" name="NPAR">     4</i>
   <i type="int" name="NSIM">     4</i>
   <i type="int" name="NBLK">    -1</i>
   <i type="logical" name="LPLANE"> T  </i>
   <i type="logical" name="LSCALAPACK"> T  </i>
   <i type="logical" name="LSCAAWARE"> F  </i>
   <i type="logical" name="LSCALU"> F  </i>
   <i type="logical" name="LASYNC"> F  </i>
   <i type="logical" name="LORBITALREAL"> F  </i>
  </separator>
  <separator name="miscellaneous" >
   <i type="int" name="IDIOT">     3</i>
   <i type="int" name="ISPECIAL">     0</i>
   <i type="logical" name="LMUSIC"> F  </i>
   <v name="POMASS">     54.93800000     16.00000000</v>
   <v name="DARWINR">      0.00000000      0.00000000</v>
   <v name="DARWINV">      1.00000000      1.00000000</v>
   <i type="logical" name="LCORR"> T  </i>
  </separator>
  <i type="logical" name="GGA_COMPAT"> T  </i>
  <i type="logical" name="LBERRY"> F  </i>
  <i type="int" name="ICORELEVEL">     0</i>
  <i type="logical" name="LDAU"> F  </i>
  <i type="int" name="I_CONSTRAINED_M">     0</i>
  <separator name="electronic exchange-correlation" >
   <i type="string" name="GGA">PE</i>
   <i type="int" name="VOSKOWN">     0</i>
   <i type="logical" name="LHFCALC"> F  </i>
   <i type="string" name="PRECFOCK"></i>
   <i type="logical" name="LSYMGRAD"> F  </i>
   <i type="logical" name="LHFONE"> F  </i>
   <i type="logical" name="LRHFCALC"> F  </i>
   <i type="logical" name="LTHOMAS"> F  </i>
   <i type="logical" name="LMODELHF"> F  </i>
   <i name="ENCUT4O">     -1.00000000</i>
   <i type="int" name="EXXOEP">     0</i>
   <i type="int" name="FOURORBIT">     0</i>
   <i name="AEXX">      0.00000000</i>
   <i name="HFALPHA">      0.00000000</i>
   <i name="MCALPHA">      0.00000000</i>
   <i name="ALDAX">      1.00000000</i>
   <i name="AGGAX">      1.00000000</i>
   <i name="ALDAC">      1.00000000</i>
   <i name="AGGAC">      1.00000000</i>
   <i type="int" name="NKREDX">     1</i>
   <i type="int" name="NKREDY">     1</i>
   <i type="int" name="NKREDZ">     1</i>
   <i type="logical" name="SHIFTRED"> F  </i>
   <i type="logical" name="ODDONLY"> F  </i>
   <i type="logical" name="EVENONLY"> F  </i>
   <i type="int" name="LMAXFOCK">     0</i>
   <i type="int" name="NMAXFOCKAE">     0</i>
   <i type="logical" name="LFOCKAEDFT"> F  </i>
   <i name="HFSCREEN">      0.00000000</i>
   <i name="HFSCREENC">      0.00000000</i>
   <i type="int" name="NBANDSGWLOW">     0</i>
  </separator>
  <separator name="vdW DFT" >
   <i type="logical" name="LUSE_VDW"> F  </i>
   <i name="Zab_VDW">     -0.84910000</i>
   <i name="PARAM1">      0.12340000</i>
   <i name="PARAM2">      1.00000000</i>
   <i name="PARAM3">      0.00000000</i>
  </separator>
  <separator name="model GW" >
   <i type="int" name="MODEL_GW">     0</i>
   <i name="MODEL_EPS0">      6.30199204</i>
   <i name="MODEL_ALPHA">      1.00000000</i>
  </separator>
  <separator name="linear response parameters" >
   <i type="logical" name="LEPSILON"> F  </i>
   <i type="logical" name="LRPA"> F  </i>
   <i type="logical" name="LNABLA"> F  </i>
   <i type="logical" name="LVEL"> F  </i>
   <i type="int" name="KINTER">     0</i>
   <i name="CSHIFT">      0.10000000</i>
   <i name="OMEGAMAX">     -1.00000000</i>
   <i name="DEG_THRESHOLD">      0.00200000</i>
   <i name="RTIME">     -0.10000000</i>
   <i name="WPLASMAI">      0.00000000</i>
   <v name="DFIELD">      0.00000000      0.00000000      0.00000000</v>
   <v name="WPLASMA">      0.00000000      0.00000000      0.00000000      0.00000000      0.00000000      0.00000000      0.00000000      0.00000000      0.00000000</v>
  </separator>
  <separator name="orbital magnetization" >
   <i type="logical" name="NUCIND"> F  </i>
   <v name="MAGPOS">      0.00000000      0.00000000      0.00000000</v>
   <i type="logical" name="LNICSALL"> T  </i>
   <i type="logical" name="ORBITALMAG"> F  </i>
   <i type="logical" name="LMAGBLOCH"> F  </i>
   <i type="logical" name="LCHIMAG"> F  </i>
   <i type="logical" name="LGAUGE"> T  </i>
   <i type="int" name="MAGATOM">     0</i>
   <v name="MAGDIPOL">      0.00000000      0.00000000      0.00000000</v>
   <v name="AVECCONST">      0.00000000      0.00000000      0.00000000</v>
  </separator>
  <separator name="response functions" >
   <i type="logical" name="LADDER"> F  </i>
   <i type="logical" name="LRPAFORCE"> F  </i>
   <i type="logical" name="LFXC"> F  </i>
   <i type="logical" name="LHARTREE"> T  </i>
   <i type="int" name="IBSE">     0</i>
   <v type="int" name="KPOINT">    -1     0     0     0</v>
   <i type="logical" name="LTCTE"> F  </i>
   <i type="logical" name="LTETE"> F  </i>
   <i type="logical" name="LTRIPLET"> F  </i>
   <i type="logical" name="LFXCEPS"> F  </i>
   <i type="logical" name="LFXHEG"> F  </i>
   <i type="int" name="NATURALO">     2</i>
   <i type="logical" name="L2ORDER"> F  </i>
   <i type="logical" name="LMP2LT"> F  </i>
   <i type="logical" name="LUSEW"> F  </i>
   <i name="ENCUTGW">     -2.00000000</i>
   <i name="ENCUTGWSOFT">     -2.00000000</i>
   <i name="ENCUTLF">     -1.00000000</i>
   <i type="int" name="LMAXMP2">    -1</i>
   <i name="SCISSOR">      0.00000000</i>
   <i type="int" name="NOMEGA">     0</i>
   <i type="int" name="NOMEGAR">     0</i>
   <i type="int" name="NBANDSGW">    -1</i>
   <i type="int" name="NBANDSO">    -1</i>
   <i type="int" name="NBANDSV">    -1</i>
   <i type="int" name="NELM">   100</i>
   <i type="int" name="NELMHF">     1</i>
   <i type="int" name="DIM">     3</i>
   <i type="int" name="ANTIRES">     0</i>
   <i name="OMEGAMAX">    -30.00000000</i>
   <i name="OMEGAMIN">    -30.00000000</i>
   <i name="OMEGATL">   -200.00000000</i>
   <i type="int" name="OMEGAGRID">   140</i>
   <i name="CSHIFT">     -0.10000000</i>
   <i type="logical" name="SELFENERGY"> F  </i>
   <i type="logical" name="LSPECTRAL"> F  </i>
   <i type="logical" name="LSPECTRALGW"> F  </i>
   <i type="logical" name="LSINGLES"> F  </i>
   <i type="logical" name="LFERMIGW"> F  </i>
   <i type="logical" name="ODDONLYGW"> F  </i>
   <i type="logical" name="EVENONLYGW"> F  </i>
   <i type="int" name="NKREDLFX">     1</i>
   <i type="int" name="NKREDLFY">     1</i>
   <i type="int" name="NKREDLFZ">     1</i>
   <i type="int" name="MAXMEM">  2800</i>
   <i type="int" name="TELESCOPE">     0</i>
   <i type="int" name="TAUPAR">     1</i>
   <i type="int" name="OMEGAPAR">    -1</i>
   <i name="LAMBDA">      1.00000000</i>
  </separator>
  <separator name="External order field" >
   <i name="OFIELD_KAPPA">      0.00000000</i>
   <v name="OFIELD_K">      0.00000000      0.00000000      0.00000000</v>
   <i name="OFIELD_Q6_NEAR">      0.00000000</i>
   <i name="OFIELD_Q6_FAR">      0.00000000</i>
   <i name="OFIELD_A">      0.00000000</i>
  </separator>
 </parameters>
 <atominfo>
  <atoms>      12 </atoms>
  <types>       2 </types>
  <array name="atoms" >
   <dimension dim="1">ion</dimension>
   <field type="string">element</field>
   <field type="int">atomtype</field>
   <set>
    <rc><c>Mn</c><c>   1</c></rc>
    <rc><c>Mn</c><c>   1</c></rc>
    <rc><c>Mn</c><c>   1</c></rc>
    <rc><c>Mn</c><c>   1</c></rc>
    <rc><c>O </c><c>   2</c></rc>
    <rc><c>O </c><c>   2</c></rc>
    <rc><c>O </c><c>   2</c></rc>
    <rc><c>O </c><c>   2</c></rc>
    <rc><c>O </c><c>   2</c></rc>
    <rc><c>O </c><c>   2</c></rc>
    <rc><c>O </c><c>   2</c></rc>
    <rc><c>O </c><c>   2</c></rc>
   </set>
  </array>
  <array name="atomtypes" >
   <dimension dim="1">type</dimension>
   <field type="int">atomspertype</field>
   <field type="string">element</field>
   <field>mass</field>
   <field>valence</field>
   <field type="string">pseudopotential</field>
   <set>
    <rc><c>   4</c><c>Mn</c><c>     54.93800000</c><c>     13.00000000</c><c>  PAW_PBE Mn_pv 02Aug2007               </c></rc>
    <rc><c>   8</c><c>O </c><c>     16.00000000</c><c>      6.00000000</c><c>  PAW_PBE O 08Apr2002                   </c></rc>
   </set>
  </array>
 </atominfo>
 <structure name="initialpos" >
  <crystal>
   <varray name="basis" >
    <v>       2.91633100       0.00000000       0.00000000 </v>
    <v>      -0.00000100       4.58096600       0.00014500 </v>
    <v>       0.00000200       0.00030000       9.43439300 </v>
   </varray>
   <i name="volume">    126.03984071 </i>
   <varray name="rec_basis" >
    <v>       0.34289661       0.00000007      -0.00000007 </v>
    <v>       0.00000000       0.21829457      -0.00000694 </v>
    <v>       0.00000000      -0.00000336       0.10599516 </v>
   </varray>
  </crystal>
  <varray name="positions" >
   <v>       0.24999086       0.16456973       0.84833620 </v>
   <v>       0.75002384       0.83537815       0.15167606 </v>
   <v>       0.74999201       0.66470248       0.65160761 </v>
   <v>       0.24998448       0.33537278       0.34834174 </v>
   <v>       0.25001928       0.77086560       0.56563026 </v>
   <v>       0.74999865       0.27082388       0.93434928 </v>
   <v>       0.25002796       0.72913548       0.06566199 </v>
   <v>       0.74999692       0.22912195       0.43437312 </v>
   <v>       0.24999230       0.10504411       0.20976212 </v>
   <v>       0.24998963       0.39498123       0.70978047 </v>
   <v>       0.75000713       0.60505669       0.29027782 </v>
   <v>       0.74997694       0.89494889       0.79020431 </v>
  </varray>
 </structure>
 <calculation>
  <scstep>
   <time name="dav">   39.73   39.88</time>
   <time name="total">   40.89   41.14</time>
   <energy>
    <i name="alphaZ">    441.37612112 </i>
    <i name="ewald">  -7415.56058929 </i>
    <i name="hartreedc">  -3645.32042053 </i>
    <i name="XCdc">    496.57052393 </i>
    <i name="pawpsdc">  14984.04692180 </i>
    <i name="pawaedc"> -15220.66191040 </i>
    <i name="eentropy">     -0.00078835 </i>
    <i name="bandstr">  -1262.55149367 </i>
    <i name="atom">  11559.90638050 </i>
    <i name="e_fr_energy">    -62.19525488 </i>
    <i name="e_wo_entrp">    -62.19446653 </i>
    <i name="e_0_energy">    -62.19486070 </i>
   </energy>
  </scstep>
  <scstep>
   <time name="diag">    5.42    5.49</time>
   <time name="diis">   15.97   16.02</time>
   <time name="orth">    1.06    1.06</time>
   <time name="total">   23.58   23.70</time>
   <energy>
    <i name="e_fr_energy">    -99.86245493 </i>
    <i name="e_wo_entrp">    -99.86169818 </i>
    <i name="e_0_energy">    -99.86207655 </i>
   </energy>
  </scstep>
  <scstep>
   <time name="diag">    5.52    5.55</time>
   <time name="diis">   18.91   18.98</time>
   <time name="orth">    0.77    0.77</time>
   <time name="total">   26.84   26.96</time>
   <energy>
    <i name="e_fr_energy">    -95.57990209 </i>
    <i name="e_wo_entrp">    -95.57910283 </i>
    <i name="e_0_energy">    -95.57950246 </i>
   </energy>
  </scstep>
  <scstep>
   <time name="diag">    5.46    5.48</time>
   <time name="diis">   18.18   18.29</time>
   <time name="orth">    0.86    0.86</time>
   <time name="total">   25.82   25.97</time>
   <energy>
    <i name="e_fr_energy">    -90.82219727 </i>
    <i name="e_wo_entrp">    -90.82161585 </i>
    <i name="e_0_energy">    -90.82190656 </i>
   </energy>
  </scstep>
  <scstep>
   <time name="diag">    3.67    3.69</time>
   <time name="diis">   16.84   16.93</time>
   <time name="orth">    0.59    0.59</time>
   <time name="total">   22.41   22.52</time>
   <energy>
    <i name="e_fr_energy">    -95.15973033 </i>
    <i name="e_wo_entrp">    -95.15940058 </i>
    <i name="e_0_energy">    -95.15956545 </i>
   </energy>
  </scstep>
  <scstep>
   <time name="diag">    2.63    3.85</time>
   <time name="diis">    9.71   12.22</time>
   <time name="orth">    0.33    0.68</time>
   <time name="total">   13.43   17.71</time>
   <energy>
    <i name="e_fr_energy">    -90.67952051 </i>
    <i name="e_wo_entrp">    -90.67901527 </i>
    <i name="e_0_energy">    -90.67926789 </i>
   </energy>
  </scstep>
  <scstep>
