unknown system                          
           1
     2.916331    0.000000    0.000000
    -0.000001    4.580966    0.000145
     0.000002    0.000300    9.434393
   Mn   O 
   4   8
Direct configuration=     1
   0.24999086  0.16456973  0.84833620
   0.75002384  0.83537815  0.15167606
   0.74999201  0.66470248  0.65160761
   0.24998448  0.33537278  0.34834174
   0.25001928  0.77086560  0.56563026
   0.74999865  0.27082388  0.93434928
   0.25002796  0.72913548  0.06566199
   0.74999692  0.22912195  0.43437312
   0.24999230  0.10504411  0.20976212
   0.24998963  0.39498123  0.70978047
   0.75000713  0.60505669  0.29027782
   0.74997694  0.89494889  0.79020431
unknown system                          
           1
     2.858287   -0.000004    0.000010
    -0.000007    4.812708    0.000242
     0.000035    0.000497   10.027529
   Mn   O 
   4   8
Direct configuration=     2
   0.24999383  0.14569484  0.85317749
   0.75002560  0.85430386  0.14682489
   0.75001004  0.64566296  0.64679882
   0.24999422  0.35427109  0.35320406
   0.24999507  0.77973028  0.55915204
   0.74999432  0.27961622  0.94079820
   0.25002099  0.72031179  0.05921801
   0.74998893  0.22031218  0.44080693
   0.24999550  0.09900571  0.20667116
   0.24999098  0.40103856  0.70667074
   0.75000733  0.59902765  0.29336252
   0.74998319  0.90102587  0.79331616
unknown system                          
           1
     2.888730   -0.000002    0.000005
    -0.000004    4.691163    0.000191
     0.000018    0.000394    9.716439
   Mn   O 
   4   8
Direct configuration=     3
   0.24999229  0.15511781  0.85078842
   0.75002461  0.84485553  0.14921883
   0.75000039  0.65516794  0.64917168
   0.24998901  0.34483661  0.35080479
   0.25000798  0.77530467  0.56234881
   0.74999666  0.27522696  0.93761596
   0.25002469  0.72471671  0.06239781
   0.74999325  0.22471038  0.43763207
   0.24999378  0.10202019  0.20819640
   0.24999023  0.39801452  0.70820529
   0.75000725  0.60203757  0.29184032
   0.74997986  0.89799213  0.79178062
unknown system                          
           1
     2.773917   -0.000005    0.000004
    -0.000009    4.735908    0.000160
     0.000015    0.000327    9.846624
   Mn   O 
   4   8
Direct configuration=     4
   0.24999298  0.15342153  0.85012024
   0.75002324  0.84654858  0.14988079
   0.75000379  0.65343094  0.64985287
   0.24999276  0.34652715  0.35014086
   0.24999887  0.77528665  0.56039712
   0.74999365  0.27520015  0.93956690
   0.25002528  0.72474684  0.06045125
   0.74999020  0.22473445  0.43957995
   0.24999673  0.10501002  0.21127681
   0.24999231  0.39504974  0.71126938
   0.75000770  0.60502022  0.28875553
   0.74998247  0.89502472  0.78870930
unknown system                          
           1
     2.780551   -0.000005    0.000004
    -0.000008    4.733322    0.000162
     0.000015    0.000331    9.839101
   Mn   O 
   4   8
Direct configuration=     5
   0.24999294  0.15351863  0.85015834
   0.75002332  0.84645167  0.14984305
   0.75000359  0.65353036  0.64981403
   0.24999254  0.34643038  0.35017871
   0.24999942  0.77528768  0.56050841
   0.74999383  0.27520168  0.93945565
   0.25002525  0.72474511  0.06056225
   0.74999038  0.22473307  0.43946888
   0.24999655  0.10483888  0.21110116
   0.24999219  0.39521945  0.71109465
   0.75000767  0.60484950  0.28893144
   0.74998231  0.89519459  0.78888444
unknown system                          
           1
     2.783015   -0.000002    0.000008
    -0.000004    4.744723    0.000097
     0.000027    0.000193    9.920117
   Mn   O 
   4   8
Direct configuration=     6
   0.24999306  0.15302200  0.84754915
   0.75002047  0.84697802  0.15244858
   0.74999883  0.65305279  0.65241037
   0.24999306  0.34695527  0.34757367
   0.25000022  0.77306333  0.55883991
   0.74999255  0.27300327  0.94113978
   0.25002057  0.72693303  0.05887731
   0.74999182  0.22692394  0.44115228
   0.24999954  0.10679565  0.21355364
   0.24999398  0.39324595  0.71354849
   0.75000821  0.60679830  0.28647653
   0.74998770  0.89322945  0.78643129
unknown system                          
           1
     2.782525   -0.000003    0.000007
    -0.000005    4.742454    0.000109
     0.000024    0.000221    9.903991
   Mn   O 
   4   8
Direct configuration=     7
   0.24999303  0.15312063  0.84806426
   0.75002104  0.84687349  0.15193419
   0.74999978  0.65314761  0.65189780
   0.24999295  0.34685106  0.34808796
   0.25000005  0.77350503  0.55916931
   0.74999280  0.27343980  0.94080730
   0.25002150  0.72649859  0.05920995
   0.74999154  0.22648889  0.44081994
   0.24999895  0.10640708  0.21306946
   0.24999363  0.39363782  0.71306405
   0.75000810  0.60641134  0.28696118
   0.74998662  0.89361968  0.78691560
unknown system                          
           1
     2.777133   -0.000001    0.000010
    -0.000002    4.744664    0.000141
     0.000036    0.000286    9.964961
   Mn   O 
   4   8
Direct configuration=     8
   0.24999304  0.15213463  0.84751670
   0.75001850  0.84787918  0.15247480
   0.74999578  0.65217145  0.65244752
   0.24999337  0.34785687  0.34753670
   0.25000082  0.76807671  0.55907809
   0.74999221  0.26803277  0.94090739
   0.25001646  0.73190243  0.05911145
   0.74999362  0.23189793  0.44091920
   0.25000129  0.10558766  0.21452810
   0.24999502  0.39445157  0.71451881
   0.75000806  0.60557883  0.28550436
   0.74999183  0.89443097  0.78545788
unknown system                          
           1
     2.763646    0.000003    0.000019
     0.000005    4.750191    0.000221
     0.000066    0.000450   10.117468
   Mn   O 
   4   8
Direct configuration=     9
   0.24999308  0.14966945  0.84615544
   0.75001213  0.85039360  0.15381880
   0.74998577  0.64973084  0.65381415
   0.24999441  0.35037162  0.34616622
   0.25000276  0.75450484  0.55885138
   0.74999072  0.25451412  0.94115625
   0.25000383  0.74541312  0.05886652
   0.74999881  0.24542162  0.44116594
   0.25000715  0.10353889  0.21815437
   0.24999849  0.39648606  0.71813540
   0.75000797  0.60349742  0.28188262
   0.75000489  0.89645942  0.78183390
unknown system                          
           1
     2.775731    0.000002    0.000015
     0.000003    4.776835    0.000209
     0.000053    0.000423   10.184252
   Mn   O 
   4   8
Direct configuration=    10
   0.24999376  0.14622393  0.84663987
   0.75000617  0.85380443  0.15333640
   0.74998859  0.64623958  0.65332899
   0.24999828  0.35377794  0.34664851
   0.24999890  0.75014967  0.55877950
   0.74999023  0.25013892  0.94122225
   0.25000510  0.74979764  0.05880564
   0.74999727  0.24981333  0.44122846
   0.25000792  0.10147119  0.21922397
   0.24999981  0.39855791  0.71920147
   0.75000733  0.60146422  0.28080300
   0.75000663  0.89856223  0.78078294
unknown system                          
           1
     2.777709    0.000001    0.000015
     0.000002    4.781196    0.000207
     0.000051    0.000418   10.195185
   Mn   O 
   4   8
Direct configuration=    11
   0.24999387  0.14566305  0.84671865
   0.75000519  0.85435966  0.15325795
   0.74998905  0.64567126  0.65325009
   0.24999891  0.35433244  0.34672695
   0.24999827  0.74944071  0.55876781
   0.74999016  0.24942670  0.94123298
   0.25000530  0.75051138  0.05879574
   0.74999702  0.25052824  0.44123863
   0.25000805  0.10113460  0.21939791
   0.25000003  0.39889518  0.71937484
   0.75000723  0.60113325  0.28062743
   0.75000692  0.89890454  0.78061203
unknown system                          
           1
     2.783686   -0.000001    0.000009
    -0.000002    4.791197    0.000093
     0.000031    0.000177   10.172547
   Mn   O 
   4   8
Direct configuration=    12
   0.24999414  0.14289542  0.84707237
   0.75000046  0.85710785  0.15290346
   0.74999421  0.64287052  0.65289956
   0.25000279  0.35706534  0.34707381
   0.24999402  0.74552231  0.55917250
   0.74999107  0.24547303  0.94081882
   0.25000737  0.75447096  0.05921334
   0.74999564  0.25450103  0.44082099
   0.25000765  0.10002407  0.22105378
   0.25000094  0.39999727  0.72103766
   0.75000586  0.60005032  0.27896826
   0.75000586  0.90002289  0.77896645
unknown system                          
           1
     2.791376   -0.000004    0.000002
    -0.000007    4.804062   -0.000054
     0.000005   -0.000134   10.143426
   Mn   O 
   4   8
Direct configuration=    13
   0.24999450  0.13934250  0.84752839
   0.74999438  0.86063581  0.15244646
   0.75000082  0.63927506  0.65244758
   0.25000776  0.36057371  0.34752106
   0.24998855  0.74049210  0.55969419
   0.74999223  0.24039750  0.94028479
   0.25001004  0.75955409  0.05975180
   0.74999386  0.25960106  0.44028258
   0.25000716  0.09859852  0.22318867
   0.25000212  0.40141219  0.72318154
   0.75000410  0.59866000  0.27682909
   0.75000448  0.90145846  0.77684483
unknown system                          
           1
     2.800330   -0.000004    0.000003
    -0.000008    4.802574   -0.000073
     0.000007   -0.000173   10.097556
   Mn   O 
   4   8
Direct configuration=    14
   0.24999415  0.13723043  0.84690647
   0.74999813  0.86276175  0.15307043
   0.75000088  0.63718473  0.65306213
   0.25000659  0.36272009  0.34689735
   0.24998961  0.73743674  0.55937238
   0.74999381  0.23733754  0.94061942
   0.25000776  0.76260270  0.05941165
   0.74999695  0.26267079  0.44061235
   0.25000615  0.09890534  0.22514554
   0.25000173  0.40108662  0.72515125
   0.75000180  0.59896705  0.27487514
   0.75000245  0.90109722  0.77487690
unknown system                          
           1
     2.805533   -0.000005    0.000003
    -0.000009    4.801709   -0.000083
     0.000008   -0.000196   10.070902
   Mn   O 
   4   8
Direct configuration=    15
   0.24999395  0.13600278  0.84654344
   0.75000030  0.86399747  0.15343465
   0.75000090  0.63596973  0.65342085
   0.25000591  0.36396766  0.34653329
   0.24999022  0.73566082  0.55918453
   0.74999472  0.23555894  0.94081475
   0.25000644  0.76437470  0.05921310
   0.74999874  0.26445507  0.44080484
   0.25000557  0.09908369  0.22628778
   0.25000151  0.40089739  0.72630098
   0.75000047  0.59914551  0.27373460
   0.75000127  0.90088724  0.77372819
unknown system                          
           1
     2.803606   -0.000003    0.000003
    -0.000005    4.805056   -0.000056
     0.000007   -0.000140   10.051597
   Mn   O 
   4   8
Direct configuration=    16
   0.24999452  0.13416271  0.84660184
   0.75000404  0.86584031  0.15337371
   0.74999733  0.63416273  0.65335395
   0.25000361  0.36584852  0.34659832
   0.24999535  0.73412404  0.55846123
   0.74999542  0.23403963  0.94155575
   0.25000280  0.76588183  0.05846665
   0.75000186  0.26597138  0.44154407
   0.25000489  0.09906650  0.22690574
   0.25000053  0.40091547  0.72692023
   0.74999957  0.59911539  0.27311758
   0.75000009  0.90087247  0.77310192
unknown system                          
           1
     2.797826    0.000004    0.000002
     0.000007    4.815097    0.000025
     0.000005    0.000028    9.993682
   Mn   O 
   4   8
Direct configuration=    17
   0.24999623  0.12864637  0.84677737
   0.75001525  0.87136501  0.15319051
   0.74998659  0.62874551  0.65315290
   0.24999672  0.37148715  0.34679378
   0.25001075  0.72951694  0.55628720
   0.74999750  0.22948486  0.94378303
   0.24999188  0.77040010  0.05622300
   0.75001123  0.27051713  0.44376601
   0.25000287  0.09901495  0.22876321
   0.24999758  0.40096967  0.72878153
   0.74999685  0.59902511  0.27126298
   0.74999656  0.90082820  0.77121949
unknown system                          
           1
     2.786266    0.000018    0.000001
     0.000030    4.835179    0.000186
     0.000001    0.000364    9.877853
   Mn   O 
   4   8
Direct configuration=    18
   0.24999972  0.11763666  0.84713055
   0.75003767  0.88239138  0.15282190
   0.74996511  0.61793366  0.65274855
   0.24998287  0.38274088  0.34718688
   0.25004164  0.72032212  0.55191402
   0.75000172  0.22039415  0.94826349
   0.24996994  0.77941796  0.05170961
   0.75002998  0.27958950  0.44823556
   0.24999882  0.09891193  0.23249968
   0.24999166  0.40107771  0.73252570
   0.74999140  0.59884506  0.26753228
   0.74998948  0.90073998  0.76743280
unknown system                          
           1
     2.763146    0.000045   -0.000001
     0.000077    4.875342    0.000510
    -0.000007    0.001037    9.646196
   Mn   O 
   4   8
Direct configuration=    19
   0.25000690  0.09570866  0.84784555
   0.75008251  0.90435258  0.15207566
   0.74992216  0.59639984  0.65193071
   0.24995485  0.40515480  0.34798192
   0.25010382  0.70200946  0.54306539
   0.75001037  0.20228762  0.95732977
   0.24992571  0.79737939  0.04257668
   0.75006748  0.29765826  0.45727918
   0.24999069  0.09870622  0.24006024
   0.24997980  0.40129237  0.74010186
   0.74998045  0.59848699  0.25998340
   0.74997526  0.90056481  0.75977064
unknown system                          
           1
     2.762707    0.000045   -0.000001
     0.000077    4.875860    0.000509
    -0.000007    0.001036    9.639918
   Mn   O 
   4   8
Direct configuration=    20
   0.25000703  0.09528768  0.84788734
   0.75008271  0.90477417  0.15203262
   0.74992199  0.59598143  0.65188896
   0.24995464  0.40557751  0.34802516
   0.25010447  0.70159762  0.54285035
   0.75001046  0.20187697  0.95754678
   0.24992538  0.79778732  0.04235823
   0.75006798  0.29806850  0.45749622
   0.24999063  0.09875534  0.24022456
   0.24997950  0.40124516  0.74026581
   0.74998027  0.59853524  0.25981899
   0.74997495  0.90051405  0.75960597
unknown system                          
           1
     2.761390    0.000045   -0.000002
     0.000077    4.877413    0.000506
    -0.000009    0.001032    9.621085
   Mn   O 
   4   8
Direct configuration=    21
   0.25000741  0.09402487  0.84801281
   0.75008331  0.90603883  0.15190342
   0.74992149  0.59472633  0.65176365
   0.24995400  0.40684551  0.34815496
   0.25010640  0.70036224  0.54220482
   0.75001073  0.20064516  0.95819822
   0.24992439  0.79901099  0.04170245
   0.75006947  0.29929907  0.45814777
   0.24999044  0.09890270  0.24071785
   0.24997859  0.40110354  0.74075797
   0.74997973  0.59867999  0.25932545
   0.74997404  0.90036177  0.75911164
unknown system                          
           1
     2.758755    0.000045   -0.000003
     0.000077    4.880519    0.000500
    -0.000012    0.001026    9.583418
   Mn   O 
   4   8
Direct configuration=    22
   0.25000817  0.09150006  0.84826423
   0.75008452  0.90856733  0.15164450
   0.74992048  0.59221693  0.65151252
   0.24995272  0.40938070  0.34841505
   0.25011026  0.69789225  0.54091122
   0.75001129  0.19818232  0.95950366
   0.24992241  0.80145756  0.04038832
   0.75007246  0.30175943  0.45945343
   0.24999006  0.09919731  0.24170636
   0.24997676  0.40082040  0.74174421
   0.74997864  0.59896940  0.25833642
   0.74997222  0.90005732  0.75812106
unknown system                          
           1
     2.753485    0.000046   -0.000004
     0.000078    4.886731    0.000489
    -0.000017    0.001012    9.508086
   Mn   O 
   4   8
Direct configuration=    23
   0.25000969  0.08645365  0.84876904
   0.75008694  0.91362111  0.15112463
   0.74991847  0.58720132  0.65100829
   0.24995017  0.41444786  0.34893729
   0.25011800  0.69295541  0.53831386
   0.75001240  0.19325977  0.96212481
   0.24991843  0.80634757  0.03774973
   0.75007845  0.30667702  0.46207502
   0.24998931  0.09978617  0.24369115
   0.24997311  0.40025447  0.74372446
   0.74997647  0.59954785  0.25635061
   0.74996856  0.89944880  0.75613211
unknown system                          
           1
     2.742946    0.000047   -0.000007
     0.000079    4.899156    0.000466
    -0.000028    0.000985    9.357420
   Mn   O 
   4   8
Direct configuration=    24
   0.25001274  0.07637367  0.84978665
   0.75009177  0.92371582  0.15007667
   0.74991444  0.57718286  0.64999183
   0.24994504  0.42456928  0.34999006
   0.25013349  0.68309427  0.53307797
   0.75001463  0.18342721  0.96740861
   0.24991046  0.81611515  0.03243075
   0.75009046  0.31649971  0.46735974
   0.24998782  0.10096240  0.24769219
   0.24996580  0.39912406  0.74771633
   0.74997211  0.60070326  0.25234751
   0.74996124  0.89823331  0.75212269
unknown system                          
           1
     2.738647    0.000047   -0.000009
     0.000080    4.904223    0.000456
    -0.000033    0.000974    9.295967
   Mn   O 
   4   8
Direct configuration=    25
   0.25001399  0.07227270  0.85020839
   0.75009375  0.92782279  0.14964236
   0.74991279  0.57310692  0.64957055
   0.24994294  0.42868711  0.35042639
   0.25013982  0.67908234  0.53090797
   0.75001556  0.17942690  0.96959845
   0.24990719  0.82008902  0.03022634
   0.75009538  0.32049601  0.46954997
   0.24998721  0.10144094  0.24935040
   0.24996282  0.39866416  0.74937073
   0.74997032  0.60117333  0.25068845
   0.74995823  0.89773879  0.75046100
unknown system                          
           1
     2.741355    0.000047   -0.000008
     0.000079    4.901031    0.000462
    -0.000030    0.000981    9.334676
   Mn   O 
   4   8
Direct configuration=    26
   0.25001320  0.07485323  0.84994098
   0.75009250  0.92523849  0.14991774
   0.74991383  0.57567170  0.64983767
   0.24994427  0.42609597  0.35014973
   0.25013583  0.68160684  0.53228389
   0.75001497  0.18194408  0.96820996
   0.24990926  0.81758847  0.03162407
   0.75009228  0.31798135  0.46816122
   0.24998759  0.10113982  0.24829899
   0.24996470  0.39895355  0.74832173
   0.74997145  0.60087754  0.25174040
   0.74996013  0.89804997  0.75151462
unknown system                          
           1
     2.741105    0.000040   -0.000009
     0.000067    4.905574    0.000395
    -0.000035    0.000859    9.273982
   Mn   O 
   4   8
Direct configuration=    27
   0.25001209  0.07240140  0.85068263
   0.75008367  0.92769043  0.14916089
   0.74992339  0.57317136  0.64913600
   0.24994968  0.42845672  0.35089595
   0.25013005  0.67902540  0.53030940
   0.75001394  0.17933829  0.97015890
   0.24991588  0.82018507  0.02966489
   0.75009089  0.32060064  0.47011438
   0.24998977  0.10233867  0.24949865
   0.24996152  0.39777932  0.74951354
   0.74996989  0.60210329  0.25053328
   0.74995923  0.89691041  0.75033249
unknown system                          
           1
     2.740658    0.000027   -0.000012
     0.000043    4.913727    0.000273
    -0.000044    0.000639    9.165067
   Mn   O 
   4   8
Direct configuration=    28
   0.25001009  0.06800575  0.85202219
   0.75006785  0.93208629  0.14779389
   0.74994052  0.56868866  0.64786860
   0.24995940  0.43268916  0.35224382
   0.25011965  0.67439724  0.52674298
   0.75001206  0.17466667  0.97367911
   0.24992778  0.82484024  0.02612621
   0.75008842  0.32529666  0.47364226
   0.24999370  0.10448803  0.25166554
   0.24995582  0.39567419  0.75166619
   0.74996709  0.60430079  0.24835295
   0.74995761  0.89486733  0.74819727
unknown system                          
           1
     2.746036    0.000018   -0.000012
     0.000028    4.919783    0.000181
    -0.000046    0.000470    9.139721
   Mn   O 
   4   8
Direct configuration=    29
   0.25000743  0.06852111  0.85248092
   0.75005593  0.93155500  0.14733302
   0.74995327  0.56912372  0.64745370
   0.24996854  0.43205056  0.35268877
   0.25010649  0.67527061  0.52607089
   0.75001004  0.17549770  0.97430392
   0.24993864  0.82403384  0.02550265
   0.75008125  0.32448688  0.47427175
   0.24999652  0.10567220  0.25163673
   0.24995511  0.39449935  0.75163739
   0.74996750  0.60552119  0.24837409
   0.74995929  0.89376884  0.74824718
unknown system                          
           1
     2.762170   -0.000008   -0.000014
    -0.000020    4.937950   -0.000095
    -0.000052   -0.000039    9.063682
   Mn   O 
   4   8
Direct configuration=    30
   0.24999948  0.07006535  0.85386097
   0.75002026  0.92996304  0.14594655
   0.74999145  0.57042724  0.64620557
   0.24999586  0.43013716  0.35402732
   0.25006709  0.67788741  0.52404904
   0.75000400  0.17798781  0.97618359
   0.24997112  0.82161756  0.02362676
   0.75005979  0.32206059  0.47616542
   0.25000497  0.10922031  0.25155010
   0.24995293  0.39097917  0.75155073
   0.74996876  0.60917792  0.24843770
   0.74996428  0.89047745  0.74839726
unknown system                          
           1
     2.794438   -0.000062   -0.000018
    -0.000116    4.974284   -0.000648
    -0.000065   -0.001056    8.911605
   Mn   O 
   4   8
Direct configuration=    31
   0.24998373  0.07314276  0.85664430
   0.74994927  0.92679054  0.14315025
   0.75006741  0.57302442  0.64368843
   0.25005014  0.42632472  0.35672676
   0.24998883  0.68310134  0.51997159
   0.74999209  0.18295008  0.97997461
   0.25003562  0.81680240  0.01984336
   0.75001704  0.31722625  0.47998440
   0.25002190  0.11629041  0.25137562
   0.24994849  0.38396470  0.75137574
   0.74997137  0.61646447  0.24856621
   0.74997411  0.88391890  0.74869974
unknown system                          
           1
     2.786107   -0.000047   -0.000010
    -0.000088    4.965668   -0.000461
    -0.000042   -0.000727    8.859984
   Mn   O 
   4   8
Direct configuration=    32
   0.24998170  0.07411150  0.85607173
   0.74995510  0.92580951  0.14376879
   0.75006183  0.57400533  0.64418999
   0.25004850  0.42549309  0.35614288
   0.24999200  0.68507123  0.51883920
   0.74999365  0.18492551  0.98112353
   0.25002865  0.81485320  0.01870244
   0.75001165  0.31520149  0.48113588
   0.25002227  0.11736613  0.24986087
   0.24995263  0.38279318  0.74991043
   0.74997360  0.61755330  0.25005922
   0.74997843  0.88281753  0.75019604
unknown system                          
           1
     2.761117   -0.000001    0.000012
    -0.000007    4.939824    0.000099
     0.000029    0.000262    8.705141
   Mn   O 
   4   8
Direct configuration=    33
   0.24997557  0.07702254  0.85434414
   0.74997267  0.92286150  0.14563506
   0.75004502  0.57695274  0.64570319
   0.25004360  0.42299426  0.35438129
   0.25000151  0.69099071  0.51542250
   0.74999826  0.19086116  0.98458987
   0.25000775  0.80899633  0.01526028
   0.74999546  0.30911713  0.48461019
   0.25002338  0.12059880  0.24529062
   0.24996513  0.37927323  0.74548945
   0.74998023  0.62082480  0.25456377
   0.74999141  0.87950780  0.75471064
unknown system                          
           1
     2.744644    0.000013    0.000014
     0.000018    4.961658   -0.000218
     0.000035   -0.000295    8.716062
   Mn   O 
   4   8
Direct configuration=    34
   0.24998135  0.07647066  0.85496629
   0.74999132  0.92348405  0.14503266
   0.75002158  0.57649277  0.64505348
   0.25002684  0.42366437  0.35494002
   0.25001379  0.69448587  0.51436488
   0.74999543  0.19441099  0.98567612
   0.24999302  0.80546381  0.01423303
   0.75000110  0.30553195  0.48569637
   0.25001892  0.12006211  0.24300490
   0.24997137  0.37982410  0.74318849
   0.74998816  0.62016384  0.25689032
   0.74999711  0.87994647  0.75695443
unknown system                          
           1
     2.736560    0.000019    0.000015
     0.000030    4.972374   -0.000373
     0.000038   -0.000569    8.721423
   Mn   O 
   4   8
Direct configuration=    35
   0.24998421  0.07620104  0.85527124
   0.75000053  0.92378821  0.14473739
   0.75001002  0.57626798  0.64473501
   0.25001856  0.42399183  0.35521390
   0.25001984  0.69619365  0.51384653
   0.74999402  0.19614559  0.98620864
   0.24998577  0.80373767  0.01372945
   0.75000390  0.30378020  0.48622872
   0.25001673  0.11979974  0.24188449
   0.24997444  0.38009315  0.74206063
   0.74999208  0.61984100  0.25803072
   0.74999992  0.88016095  0.75805428
unknown system                          
           1
     2.726263    0.000009    0.000009
     0.000012    4.964446   -0.000479
     0.000018   -0.000749    8.779362
   Mn   O 
   4   8
Direct configuration=    36
   0.24998983  0.07644976  0.85589766
   0.75000063  0.92353208  0.14408914
   0.75000414  0.57642445  0.64413599
   0.25001095  0.42362102  0.35586321
   0.25001647  0.69688595  0.51376342
   0.74999052  0.19684021  0.98628760
   0.24998911  0.80306071  0.01368209
   0.75000825  0.30313555  0.48627734
   0.25001252  0.12021536  0.24203498
   0.24998079  0.37981413  0.74214033
   0.74999771  0.62021478  0.25790756
   0.74999908  0.87980700  0.75792167
unknown system                          
           1
     2.697556   -0.000018   -0.000008
    -0.000038    4.942344   -0.000774
    -0.000038   -0.001252    8.940897
   Mn   O 
   4   8
Direct configuration=    37
   0.25000559  0.07714439  0.85763262
   0.75000091  0.92281677  0.14229370
   0.74998769  0.57686131  0.64247692
   0.24998965  0.42258559  0.35766157
   0.25000707  0.69881917  0.51353324
   0.74998075  0.19877993  0.98650632
   0.24999844  0.80117029  0.01355092
   0.75002040  0.30133540  0.48641200
   0.25000078  0.12137601  0.24245179
   0.24999855  0.37903501  0.74236108
   0.75001347  0.62125855  0.25756645
   0.74999672  0.87881859  0.75755438
unknown system                          
           1
     2.683160   -0.000008   -0.000005
    -0.000021    4.895887   -0.000604
    -0.000028   -0.000924    8.987180
   Mn   O 
   4   8
Direct configuration=    38
   0.24999854  0.07691319  0.85716095
   0.75000089  0.92312816  0.14281966
   0.74999315  0.57687064  0.64279406
   0.24999852  0.42320613  0.35718731
   0.24999917  0.69975303  0.51324109
   0.74999268  0.19978844  0.98682460
   0.24999834  0.80014296  0.01318292
   0.75000735  0.30017799  0.48678221
   0.24999627  0.12187303  0.24243836
   0.25000382  0.37817470  0.74246434
   0.75001640  0.62181795  0.25756117
   0.74999486  0.87815480  0.75754431
unknown system                          
           1
     2.685481   -0.000010   -0.000006
    -0.000024    4.903379   -0.000631
    -0.000030   -0.000977    8.979716
   Mn   O 
   4   8
Direct configuration=    39
   0.24999968  0.07695082  0.85723663
   0.75000089  0.92307747  0.14273528
   0.74999227  0.57686912  0.64274318
   0.24999708  0.42310510  0.35726340
   0.25000045  0.69960100  0.51328796
   0.74999075  0.19962426  0.98677354
   0.24999836  0.80031020  0.01324195
   0.75000947  0.30036641  0.48672282
   0.24999700  0.12179211  0.24244052
   0.25000296  0.37831476  0.74244777
   0.75001593  0.62172688  0.25756202
   0.74999516  0.87826286  0.75754592
unknown system                          
           1
     2.686759    0.000001    0.000003
    -0.000003    4.888454   -0.000330
    -0.000001   -0.000423    8.979786
   Mn   O 
   4   8
Direct configuration=    40
   0.24999322  0.07614631  0.85757499
   0.74999979  0.92387039  0.14242878
   0.74999969  0.57613247  0.64240408
   0.25000543  0.42402071  0.35756349
   0.24999734  0.70081211  0.51325530
   0.74999919  0.20082565  0.98678648
   0.24999617  0.79912218  0.01319932
   0.74999843  0.29910611  0.48677083
   0.24999709  0.12191188  0.24226117
   0.25000135  0.37805117  0.74230903
   0.75001755  0.62190688  0.25772927
   0.74999475  0.87809515  0.75771827
unknown system                          
           1
     2.690593    0.000034    0.000029
     0.000057    4.843679    0.000573
     0.000087    0.001240    8.979998
   Mn   O 
   4   8
Direct configuration=    41
   0.24997385  0.07372527  0.85859015
   0.74999649  0.92625652  0.14150919
   0.75002197  0.57391587  0.64138684
   0.25003045  0.42677581  0.35846364
   0.24998800  0.70445654  0.51315719
   0.75002446  0.20444082  0.98682518
   0.24998962  0.79554727  0.01307152
   0.74996537  0.29531365  0.48691499
   0.24999737  0.12227232  0.24172312
   0.24999652  0.37725803  0.74189284
   0.75002240  0.62244847  0.25823099
   0.74999351  0.87759043  0.75823534
unknown system                          
           1
     2.688952    0.000020    0.000018
     0.000031    4.862837    0.000187
     0.000050    0.000529    8.979907
   Mn   O 
   4   8
Direct configuration=    42
   0.24998212  0.07477090  0.85815569
   0.74999791  0.92522597  0.14190276
   0.75001242  0.57487292  0.64182199
   0.25001980  0.42558620  0.35807861
   0.24999202  0.70288274  0.51319932
   0.75001370  0.20287968  0.98680878
   0.24999238  0.79709102  0.01312604
   0.74997946  0.29695138  0.48685315
   0.24999725  0.12211659  0.24195335
   0.24999857  0.37760047  0.74207088
   0.75002034  0.62221467  0.25801635
   0.74999404  0.87780846  0.75801408
unknown system                          
           1
     2.695852    0.000001    0.000009
    -0.000003    4.851983   -0.000408
     0.000018   -0.000571    8.999502
   Mn   O 
   4   8
Direct configuration=    43
   0.24999684  0.07467855  0.85835536
   0.74999647  0.92526412  0.14164892
   0.75000215  0.57459477  0.64172397
   0.25000640  0.42513936  0.35835738
   0.24999843  0.70430973  0.51315926
   0.74999958  0.20428402  0.98681435
   0.24999335  0.79574407  0.01317461
   0.74999197  0.29576373  0.48680704
   0.25000065  0.12343722  0.24179633
   0.24999791  0.37665909  0.74178015
   0.75002243  0.62349792  0.25817875
   0.74999382  0.87662842  0.75820489
unknown system                          
           1
     2.693708    0.000007    0.000011
     0.000007    4.855356   -0.000223
     0.000028   -0.000229    8.993412
   Mn   O 
   4   8
Direct configuration=    44
   0.24999228  0.07470731  0.85829344
   0.74999692  0.92525226  0.14172764
   0.75000533  0.57468142  0.64175437
   0.25001056  0.42527853  0.35827094
   0.24999644  0.70386523  0.51317165
   0.75000395  0.20384657  0.98681259
   0.24999305  0.79616364  0.01315957
   0.74998810  0.29613369  0.48682136
   0.24999959  0.12302586  0.24184500
   0.24999812  0.37695235  0.74187033
   0.75002178  0.62309818  0.25812836
   0.74999389  0.87699598  0.75814574
unknown system                          
           1
     2.692850   -0.000013    0.000001
    -0.000029    4.846656   -0.000351
    -0.000007   -0.000465    9.000337
   Mn   O 
   4   8
Direct configuration=    45
   0.25000407  0.07480314  0.85843524
   0.74999782  0.92519344  0.14153334
   0.74999364  0.57471874  0.64159837
   0.24999769  0.42504046  0.35847208
   0.25000348  0.70402182  0.51339804