  12  12   1   0
  0.1050332E+02  0.2916331E-09  0.4580966E-09  0.9434393E-09  0.5000000E-15
  1.000000000000000E-004
  CAR 
 unknown system                          
     10.30140440    -48.37520034  301      4.48264110      1.00000000
    -48.375  0.0000E+00  0.0000E+00  0.0000E+00  0.0000E+00
    -48.180  0.0000E+00  0.0000E+00  0.0000E+00  0.0000E+00
    -47.984  0.0000E+00  0.0000E+00  0.0000E+00  0.0000E+00
    -47.788  0.0000E+00  0.0000E+00  0.0000E+00  0.0000E+00
    -47.593  0.0000E+00  0.0000E+00  0.0000E+00  0.0000E+00
    -47.397  0.0000E+00  0.0000E+00  0.0000E+00  0.0000E+00
    -47.202  0.0000E+00  0.0000E+00  0.0000E+00  0.0000E+00
    -47.006  0.0000E+00  0.0000E+00  0.0000E+00  0.0000E+00
    -46.810  0.0000E+00  0.0000E+00  0.0000E+00  0.0000E+00
    -46.615  0.0000E+00  0.0000E+00  0.0000E+00  0.0000E+00
    -46.419  0.0000E+00  0.0000E+00  0.0000E+00  0.0000E+00
    -46.224  0.0000E+00  0.0000E+00  0.0000E+00  0.0000E+00
    -46.028  0.0000E+00  0.0000E+00  0.0000E+00  0.0000E+00
    -45.833  0.0000E+00  0.0000E+00  0.0000E+00  0.0000E+00
    -45.637  0.5258E-01  0.5196E-01  0.1028E-01  0.1016E-01
    -45.441  0.0000E+00  0.0000E+00  0.2010E-01  0.2010E-01
    -45.246  0.5138E-01  0.5138E-01  0.3015E-01  0.3015E-01
    -45.050  0.0000E+00  0.0000E+00  0.3015E-01  0.3015E-01
    -44.855  0.0000E+00  0.0000E+00  0.3015E-01  0.3015E-01
    -44.659  0.0000E+00  0.0000E+00  0.3015E-01  0.3015E-01
    -44.463  0.0000E+00  0.0000E+00  0.3015E-01  0.3015E-01
    -44.268  0.0000E+00  0.0000E+00  0.3015E-01  0.3015E-01
    -44.072  0.0000E+00  0.0000E+00  0.3015E-01  0.3015E-01
    -43.877  0.0000E+00  0.0000E+00  0.3015E-01  0.3015E-01
    -43.681  0.0000E+00  0.0000E+00  0.3015E-01  0.3015E-01
    -43.485  0.5138E-01  0.5138E-01  0.4020E-01  0.4020E-01
    -43.290  0.4692E-15  0.4137E-14  0.4020E-01  0.4020E-01
    -43.094  0.0000E+00  0.0000E+00  0.5025E-01  0.5025E-01
    -42.899  0.0000E+00  0.0000E+00  0.5025E-01  0.5025E-01
    -42.703  0.0000E+00  0.0000E+00  0.5025E-01  0.5025E-01
    -42.508  0.5138E-01  0.5138E-01  0.6030E-01  0.6030E-01
    -42.312  0.0000E+00  0.0000E+00  0.6030E-01  0.6030E-01
    -42.116  0.0000E+00  0.0000E+00  0.6030E-01  0.6030E-01
    -41.921  0.0000E+00  0.0000E+00  0.6030E-01  0.6030E-01
    -41.725  0.0000E+00  0.0000E+00  0.6030E-01  0.6030E-01
    -41.530  0.0000E+00  0.0000E+00  0.6030E-01  0.6030E-01
    -41.334  0.0000E+00  0.0000E+00  0.6030E-01  0.6030E-01
    -41.138  0.0000E+00  0.0000E+00  0.6030E-01  0.6030E-01
    -40.943  0.0000E+00  0.0000E+00  0.6030E-01  0.6030E-01
    -40.747  0.0000E+00  0.0000E+00  0.6030E-01  0.6030E-01
    -40.552  0.0000E+00  0.0000E+00  0.6030E-01  0.6030E-01
    -40.356  0.0000E+00  0.0000E+00  0.6030E-01  0.6030E-01
    -40.160  0.0000E+00  0.0000E+00  0.6030E-01  0.6030E-01
    -39.965  0.0000E+00  0.0000E+00  0.6030E-01  0.6030E-01
    -39.769  0.0000E+00  0.0000E+00  0.6030E-01  0.6030E-01
    -39.574  0.0000E+00  0.0000E+00  0.6030E-01  0.6030E-01
    -39.378  0.0000E+00  0.0000E+00  0.6030E-01  0.6030E-01
    -39.183  0.0000E+00  0.0000E+00  0.6030E-01  0.6030E-01
    -38.987  0.0000E+00  0.0000E+00  0.6030E-01  0.6030E-01
    -38.791  0.0000E+00  0.0000E+00  0.6030E-01  0.6030E-01
    -38.596  0.0000E+00  0.0000E+00  0.6030E-01  0.6030E-01
    -38.400  0.0000E+00  0.0000E+00  0.6030E-01  0.6030E-01
    -38.205  0.0000E+00  0.0000E+00  0.6030E-01  0.6030E-01
    -38.009  0.0000E+00  0.0000E+00  0.6030E-01  0.6030E-01
    -37.813  0.0000E+00  0.0000E+00  0.6030E-01  0.6030E-01
    -37.618  0.0000E+00  0.0000E+00  0.6030E-01  0.6030E-01
    -37.422  0.0000E+00  0.0000E+00  0.6030E-01  0.6030E-01
    -37.227  0.0000E+00  0.0000E+00  0.6030E-01  0.6030E-01
    -37.031  0.0000E+00  0.0000E+00  0.6030E-01  0.6030E-01
    -36.835  0.0000E+00  0.0000E+00  0.6030E-01  0.6030E-01
    -36.640  0.0000E+00  0.0000E+00  0.6030E-01  0.6030E-01
    -36.444  0.0000E+00  0.0000E+00  0.6030E-01  0.6030E-01
    -36.249  0.0000E+00  0.0000E+00  0.6030E-01  0.6030E-01
    -36.053  0.0000E+00  0.0000E+00  0.6030E-01  0.6030E-01
    -35.858  0.0000E+00  0.0000E+00  0.6030E-01  0.6030E-01
    -35.662  0.0000E+00  0.0000E+00  0.6030E-01  0.6030E-01
    -35.466  0.0000E+00  0.0000E+00  0.6030E-01  0.6030E-01
    -35.271  0.0000E+00  0.0000E+00  0.6030E-01  0.6030E-01
    -35.075  0.0000E+00  0.0000E+00  0.6030E-01  0.6030E-01
    -34.880  0.0000E+00  0.0000E+00  0.6030E-01  0.6030E-01
    -34.684  0.0000E+00  0.0000E+00  0.6030E-01  0.6030E-01
    -34.488  0.0000E+00  0.0000E+00  0.6030E-01  0.6030E-01
    -34.293  0.0000E+00  0.0000E+00  0.6030E-01  0.6030E-01
    -34.097  0.0000E+00  0.0000E+00  0.6030E-01  0.6030E-01
    -33.902  0.0000E+00  0.0000E+00  0.6030E-01  0.6030E-01
    -33.706  0.0000E+00  0.0000E+00  0.6030E-01  0.6030E-01
    -33.510  0.0000E+00  0.0000E+00  0.6030E-01  0.6030E-01
    -33.315  0.0000E+00  0.0000E+00  0.6030E-01  0.6030E-01
    -33.119  0.0000E+00  0.0000E+00  0.6030E-01  0.6030E-01
    -32.924  0.0000E+00  0.0000E+00  0.6030E-01  0.6030E-01
    -32.728  0.0000E+00  0.0000E+00  0.6030E-01  0.6030E-01
    -32.533  0.0000E+00  0.0000E+00  0.6030E-01  0.6030E-01
    -32.337  0.0000E+00  0.0000E+00  0.6030E-01  0.6030E-01
    -32.141  0.0000E+00  0.0000E+00  0.6030E-01  0.6030E-01
    -31.946  0.0000E+00  0.0000E+00  0.6030E-01  0.6030E-01
    -31.750  0.0000E+00  0.0000E+00  0.6030E-01  0.6030E-01
    -31.555  0.0000E+00  0.0000E+00  0.6030E-01  0.6030E-01
    -31.359  0.0000E+00  0.0000E+00  0.6030E-01  0.6030E-01
    -31.163  0.0000E+00  0.0000E+00  0.6030E-01  0.6030E-01
    -30.968  0.0000E+00  0.0000E+00  0.6030E-01  0.6030E-01
    -30.772  0.0000E+00  0.0000E+00  0.6030E-01  0.6030E-01
    -30.577  0.0000E+00  0.0000E+00  0.6030E-01  0.6030E-01
    -30.381  0.0000E+00  0.0000E+00  0.6030E-01  0.6030E-01
    -30.185  0.0000E+00  0.0000E+00  0.6030E-01  0.6030E-01
    -29.990  0.0000E+00  0.0000E+00  0.6030E-01  0.6030E-01
    -29.794  0.0000E+00  0.0000E+00  0.6030E-01  0.6030E-01
    -29.599  0.0000E+00  0.0000E+00  0.6030E-01  0.6030E-01
    -29.403  0.0000E+00  0.0000E+00  0.6030E-01  0.6030E-01
    -29.208  0.0000E+00  0.0000E+00  0.6030E-01  0.6030E-01
    -29.012  0.0000E+00  0.0000E+00  0.6030E-01  0.6030E-01
    -28.816  0.0000E+00  0.0000E+00  0.6030E-01  0.6030E-01
    -28.621  0.0000E+00  0.0000E+00  0.6030E-01  0.6030E-01
    -28.425  0.0000E+00  0.0000E+00  0.6030E-01  0.6030E-01
    -28.230  0.0000E+00  0.0000E+00  0.6030E-01  0.6030E-01
    -28.034  0.0000E+00  0.0000E+00  0.6030E-01  0.6030E-01
    -27.838  0.0000E+00  0.0000E+00  0.6030E-01  0.6030E-01
    -27.643  0.0000E+00  0.0000E+00  0.6030E-01  0.6030E-01
    -27.447  0.0000E+00  0.0000E+00  0.6030E-01  0.6030E-01
    -27.252  0.0000E+00  0.0000E+00  0.6030E-01  0.6030E-01
    -27.056  0.0000E+00  0.0000E+00  0.6030E-01  0.6030E-01
    -26.860  0.0000E+00  0.0000E+00  0.6030E-01  0.6030E-01
    -26.665  0.0000E+00  0.0000E+00  0.6030E-01  0.6030E-01
    -26.469  0.0000E+00  0.0000E+00  0.6030E-01  0.6030E-01
    -26.274  0.0000E+00  0.0000E+00  0.6030E-01  0.6030E-01
    -26.078  0.0000E+00  0.0000E+00  0.6030E-01  0.6030E-01
    -25.883  0.0000E+00  0.0000E+00  0.6030E-01  0.6030E-01
    -25.687  0.0000E+00  0.0000E+00  0.6030E-01  0.6030E-01
    -25.491  0.0000E+00  0.0000E+00  0.6030E-01  0.6030E-01
    -25.296  0.0000E+00  0.0000E+00  0.6030E-01  0.6030E-01
    -25.100  0.0000E+00  0.0000E+00  0.6030E-01  0.6030E-01
    -24.905  0.0000E+00  0.0000E+00  0.6030E-01  0.6030E-01
    -24.709  0.0000E+00  0.0000E+00  0.6030E-01  0.6030E-01
    -24.513  0.0000E+00  0.0000E+00  0.6030E-01  0.6030E-01
    -24.318  0.0000E+00  0.0000E+00  0.6030E-01  0.6030E-01
    -24.122  0.0000E+00  0.0000E+00  0.6030E-01  0.6030E-01
    -23.927  0.0000E+00  0.0000E+00  0.6030E-01  0.6030E-01
    -23.731  0.0000E+00  0.0000E+00  0.6030E-01  0.6030E-01
    -23.535  0.0000E+00  0.0000E+00  0.6030E-01  0.6030E-01
    -23.340  0.0000E+00  0.0000E+00  0.6030E-01  0.6030E-01
    -23.144  0.0000E+00  0.0000E+00  0.6030E-01  0.6030E-01
    -22.949  0.0000E+00  0.0000E+00  0.6030E-01  0.6030E-01
    -22.753  0.0000E+00  0.0000E+00  0.6030E-01  0.6030E-01
    -22.557  0.0000E+00  0.0000E+00  0.6030E-01  0.6030E-01
    -22.362  0.0000E+00  0.0000E+00  0.6030E-01  0.6030E-01
    -22.166  0.0000E+00  0.0000E+00  0.6030E-01  0.6030E-01
    -21.971  0.0000E+00  0.0000E+00  0.6030E-01  0.6030E-01
    -21.775  0.0000E+00  0.0000E+00  0.6030E-01  0.6030E-01
    -21.580  0.0000E+00  0.0000E+00  0.6030E-01  0.6030E-01
    -21.384  0.0000E+00  0.0000E+00  0.6030E-01  0.6030E-01
    -21.188  0.0000E+00  0.0000E+00  0.6030E-01  0.6030E-01
    -20.993  0.0000E+00  0.0000E+00  0.6030E-01  0.6030E-01
    -20.797  0.0000E+00  0.0000E+00  0.6030E-01  0.6030E-01
    -20.602  0.0000E+00  0.0000E+00  0.6030E-01  0.6030E-01
    -20.406  0.0000E+00  0.0000E+00  0.6030E-01  0.6030E-01
    -20.210  0.0000E+00  0.0000E+00  0.6030E-01  0.6030E-01
    -20.015  0.0000E+00  0.0000E+00  0.6030E-01  0.6030E-01
    -19.819  0.0000E+00  0.0000E+00  0.6030E-01  0.6030E-01
    -19.624  0.0000E+00  0.0000E+00  0.6030E-01  0.6030E-01
    -19.428  0.0000E+00  0.0000E+00  0.6030E-01  0.6030E-01
    -19.232  0.0000E+00  0.0000E+00  0.6030E-01  0.6030E-01
    -19.037  0.0000E+00  0.0000E+00  0.6030E-01  0.6030E-01
    -18.841  0.0000E+00  0.0000E+00  0.6030E-01  0.6030E-01
    -18.646  0.0000E+00  0.0000E+00  0.6030E-01  0.6030E-01
    -18.450  0.0000E+00  0.0000E+00  0.6030E-01  0.6030E-01
    -18.255  0.0000E+00  0.0000E+00  0.6030E-01  0.6030E-01
    -18.059  0.0000E+00  0.0000E+00  0.6030E-01  0.6030E-01
    -17.863  0.0000E+00  0.0000E+00  0.6030E-01  0.6030E-01
    -17.668  0.0000E+00  0.0000E+00  0.6030E-01  0.6030E-01
    -17.472  0.0000E+00  0.0000E+00  0.6030E-01  0.6030E-01
    -17.277  0.0000E+00  0.0000E+00  0.6030E-01  0.6030E-01
    -17.081  0.0000E+00  0.0000E+00  0.6030E-01  0.6030E-01
    -16.885  0.0000E+00  0.0000E+00  0.6030E-01  0.6030E-01
    -16.690  0.0000E+00  0.0000E+00  0.6030E-01  0.6030E-01
    -16.494  0.0000E+00  0.0000E+00  0.6030E-01  0.6030E-01
    -16.299  0.0000E+00  0.0000E+00  0.6030E-01  0.6030E-01
    -16.103  0.0000E+00  0.0000E+00  0.6030E-01  0.6030E-01
    -15.907  0.0000E+00  0.0000E+00  0.6030E-01  0.6030E-01
    -15.712  0.2164E-06  0.2258E-06  0.6030E-01  0.6030E-01
    -15.516  0.0000E+00  0.0000E+00  0.6533E-01  0.6533E-01
    -15.321  0.9547E-05  0.1017E-04  0.6533E-01  0.6533E-01
    -15.125  0.0000E+00  0.0000E+00  0.7035E-01  0.7035E-01
    -14.930  0.0000E+00  0.0000E+00  0.7538E-01  0.7538E-01
    -14.734  0.0000E+00  0.0000E+00  0.7538E-01  0.7538E-01
    -14.538  0.2569E-01  0.2569E-01  0.8040E-01  0.8040E-01
    -14.343  0.0000E+00  0.0000E+00  0.8040E-01  0.8040E-01
    -14.147  0.0000E+00  0.0000E+00  0.8040E-01  0.8040E-01
    -13.952  0.0000E+00  0.0000E+00  0.8040E-01  0.8040E-01
    -13.756  0.0000E+00  0.0000E+00  0.8040E-01  0.8040E-01
    -13.560  0.9511E-02  0.9412E-02  0.8226E-01  0.8224E-01
    -13.365  0.2569E-01  0.2569E-01  0.1005E+00  0.1005E+00
    -13.169  0.0000E+00  0.0000E+00  0.1005E+00  0.1005E+00
    -12.974  0.0000E+00  0.0000E+00  0.1005E+00  0.1005E+00
    -12.778  0.0000E+00  0.0000E+00  0.1005E+00  0.1005E+00
    -12.582  0.0000E+00  0.0000E+00  0.1005E+00  0.1005E+00
    -12.387  0.0000E+00  0.0000E+00  0.1005E+00  0.1005E+00
    -12.191  0.0000E+00  0.0000E+00  0.1005E+00  0.1005E+00
    -11.996  0.0000E+00  0.0000E+00  0.1005E+00  0.1005E+00
    -11.800  0.0000E+00  0.0000E+00  0.1005E+00  0.1005E+00
    -11.605  0.0000E+00  0.0000E+00  0.1005E+00  0.1005E+00
    -11.409  0.0000E+00  0.0000E+00  0.1005E+00  0.1005E+00
    -11.213  0.0000E+00  0.0000E+00  0.1005E+00  0.1005E+00
    -11.018  0.0000E+00  0.0000E+00  0.1005E+00  0.1005E+00
    -10.822  0.0000E+00  0.0000E+00  0.1005E+00  0.1005E+00
    -10.627  0.0000E+00  0.0000E+00  0.1005E+00  0.1005E+00
    -10.431  0.0000E+00  0.0000E+00  0.1005E+00  0.1005E+00
    -10.235  0.0000E+00  0.0000E+00  0.1005E+00  0.1005E+00
    -10.040  0.0000E+00  0.0000E+00  0.1005E+00  0.1005E+00
     -9.844  0.0000E+00  0.0000E+00  0.1005E+00  0.1005E+00
     -9.649  0.0000E+00  0.0000E+00  0.1005E+00  0.1005E+00
     -9.453  0.0000E+00  0.0000E+00  0.1005E+00  0.1005E+00
     -9.257  0.0000E+00  0.0000E+00  0.1005E+00  0.1005E+00
     -9.062  0.0000E+00  0.0000E+00  0.1005E+00  0.1005E+00
     -8.866  0.0000E+00  0.0000E+00  0.1005E+00  0.1005E+00
     -8.671  0.0000E+00  0.0000E+00  0.1005E+00  0.1005E+00
     -8.475  0.0000E+00  0.0000E+00  0.1005E+00  0.1005E+00
     -8.280  0.0000E+00  0.0000E+00  0.1005E+00  0.1005E+00
     -8.084  0.0000E+00  0.0000E+00  0.1005E+00  0.1005E+00
     -7.888  0.0000E+00  0.0000E+00  0.1005E+00  0.1005E+00
     -7.693  0.0000E+00  0.0000E+00  0.1005E+00  0.1005E+00
     -7.497  0.0000E+00  0.0000E+00  0.1005E+00  0.1005E+00
     -7.302  0.0000E+00  0.0000E+00  0.1005E+00  0.1005E+00
     -7.106  0.0000E+00  0.0000E+00  0.1005E+00  0.1005E+00
     -6.910  0.0000E+00  0.0000E+00  0.1005E+00  0.1005E+00
     -6.715  0.0000E+00  0.0000E+00  0.1005E+00  0.1005E+00
     -6.519  0.0000E+00  0.0000E+00  0.1005E+00  0.1005E+00
     -6.324  0.0000E+00  0.0000E+00  0.1005E+00  0.1005E+00
     -6.128  0.0000E+00  0.0000E+00  0.1005E+00  0.1005E+00
     -5.932  0.0000E+00  0.0000E+00  0.1005E+00  0.1005E+00
     -5.737  0.0000E+00  0.0000E+00  0.1005E+00  0.1005E+00
     -5.541  0.0000E+00  0.0000E+00  0.1005E+00  0.1005E+00
     -5.346  0.0000E+00  0.0000E+00  0.1005E+00  0.1005E+00
     -5.150  0.0000E+00  0.0000E+00  0.1005E+00  0.1005E+00
     -4.955  0.0000E+00  0.0000E+00  0.1005E+00  0.1005E+00
     -4.759  0.0000E+00  0.0000E+00  0.1005E+00  0.1005E+00
     -4.563  0.0000E+00  0.0000E+00  0.1005E+00  0.1005E+00
     -4.368  0.0000E+00  0.0000E+00  0.1005E+00  0.1005E+00
     -4.172  0.0000E+00  0.0000E+00  0.1005E+00  0.1005E+00
     -3.977  0.0000E+00  0.0000E+00  0.1005E+00  0.1005E+00
     -3.781  0.0000E+00  0.0000E+00  0.1005E+00  0.1005E+00
     -3.585  0.0000E+00  0.0000E+00  0.1005E+00  0.1005E+00
     -3.390  0.0000E+00  0.0000E+00  0.1005E+00  0.1005E+00
     -3.194  0.0000E+00  0.0000E+00  0.1005E+00  0.1005E+00
     -2.999  0.0000E+00  0.0000E+00  0.1005E+00  0.1005E+00
     -2.803  0.1804E-03  0.1556E-03  0.1005E+00  0.1005E+00
     -2.607  0.2569E-01  0.2569E-01  0.1106E+00  0.1106E+00
     -2.412  0.0000E+00  0.0000E+00  0.1106E+00  0.1106E+00
     -2.216  0.1906E-01  0.1957E-01  0.1143E+00  0.1144E+00
     -2.021  0.0000E+00  0.0000E+00  0.1206E+00  0.1206E+00
     -1.825  0.5138E-01  0.5138E-01  0.1307E+00  0.1307E+00
     -1.630  0.0000E+00  0.0000E+00  0.1307E+00  0.1307E+00
     -1.434  0.2438E-08  0.2755E-08  0.1307E+00  0.1307E+00
     -1.238  0.2569E-01  0.2569E-01  0.1457E+00  0.1457E+00
     -1.043  0.0000E+00  0.0000E+00  0.1457E+00  0.1457E+00
     -0.847  0.2569E-01  0.2569E-01  0.1558E+00  0.1558E+00
     -0.652  0.2041E-05  0.2024E-05  0.1558E+00  0.1558E+00
     -0.456  0.0000E+00  0.0000E+00  0.1608E+00  0.1608E+00
     -0.260  0.0000E+00  0.0000E+00  0.1608E+00  0.1608E+00
     -0.065  0.0000E+00  0.0000E+00  0.1608E+00  0.1608E+00
      0.131  0.0000E+00  0.0000E+00  0.1608E+00  0.1608E+00
      0.326  0.2569E-01  0.2569E-01  0.1658E+00  0.1658E+00
      0.522  0.5102E-01  0.5097E-01  0.1758E+00  0.1758E+00
      0.718  0.0000E+00  0.0000E+00  0.1809E+00  0.1809E+00
      0.913  0.5462E-05  0.5549E-05  0.1809E+00  0.1809E+00
      1.109  0.2569E-01  0.2569E-01  0.1960E+00  0.1960E+00
      1.304  0.0000E+00  0.0000E+00  0.2010E+00  0.2010E+00
      1.500  0.1798E-13  0.1203E-13  0.2010E+00  0.2010E+00
      1.696  0.0000E+00  0.0000E+00  0.2060E+00  0.2060E+00
      1.891  0.0000E+00  0.0000E+00  0.2060E+00  0.2060E+00
      2.087  0.0000E+00  0.0000E+00  0.2111E+00  0.2111E+00
      2.282  0.2569E-01  0.2569E-01  0.2161E+00  0.2161E+00
      2.478  0.0000E+00  0.0000E+00  0.2161E+00  0.2161E+00
      2.673  0.0000E+00  0.0000E+00  0.2161E+00  0.2161E+00
      2.869  0.2504E-01  0.2509E-01  0.2210E+00  0.2210E+00
      3.065  0.0000E+00  0.0000E+00  0.2211E+00  0.2211E+00
      3.260  0.2613E-01  0.2601E-01  0.2262E+00  0.2262E+00
      3.456  0.2569E-01  0.2569E-01  0.2362E+00  0.2362E+00
      3.651  0.2569E-01  0.2569E-01  0.2412E+00  0.2412E+00
      3.847  0.0000E+00  0.0000E+00  0.2412E+00  0.2412E+00
      4.043  0.0000E+00  0.0000E+00  0.2412E+00  0.2412E+00
      4.238  0.1806E-01  0.1629E-01  0.2447E+00  0.2444E+00
      4.434  0.2569E-01  0.2569E-01  0.2513E+00  0.2513E+00
      4.629  0.0000E+00  0.0000E+00  0.2513E+00  0.2513E+00
      4.825  0.0000E+00  0.0000E+00  0.2513E+00  0.2513E+00
      5.021  0.0000E+00  0.0000E+00  0.2513E+00  0.2513E+00
      5.216  0.0000E+00  0.0000E+00  0.2513E+00  0.2513E+00
      5.412  0.0000E+00  0.0000E+00  0.2513E+00  0.2513E+00
      5.607  0.0000E+00  0.0000E+00  0.2513E+00  0.2513E+00
      5.803  0.2568E-01  0.2568E-01  0.2563E+00  0.2563E+00
      5.998  0.2569E-01  0.2569E-01  0.2714E+00  0.2714E+00
      6.194  0.0000E+00  0.0000E+00  0.2714E+00  0.2714E+00
      6.390  0.2569E-01  0.2569E-01  0.2764E+00  0.2764E+00
      6.585  0.0000E+00  0.0000E+00  0.2814E+00  0.2814E+00
      6.781  0.0000E+00  0.0000E+00  0.2814E+00  0.2814E+00
      6.976  0.2569E-01  0.2569E-01  0.2864E+00  0.2864E+00
      7.172  0.1111E-04  0.1311E-04  0.2864E+00  0.2864E+00
      7.368  0.0000E+00  0.0000E+00  0.2915E+00  0.2915E+00
      7.563  0.0000E+00  0.0000E+00  0.2915E+00  0.2915E+00
      7.759  0.0000E+00  0.0000E+00  0.3015E+00  0.3015E+00
      7.954  0.0000E+00  0.0000E+00  0.3015E+00  0.3015E+00
      8.150  0.0000E+00  0.0000E+00  0.3015E+00  0.3015E+00
      8.346  0.0000E+00  0.0000E+00  0.3015E+00  0.3015E+00
      8.541  0.0000E+00  0.0000E+00  0.3015E+00  0.3015E+00
      8.737  0.0000E+00  0.0000E+00  0.3015E+00  0.3015E+00
      8.932  0.0000E+00  0.0000E+00  0.3015E+00  0.3015E+00
      9.128  0.0000E+00  0.0000E+00  0.3015E+00  0.3015E+00
      9.323  0.0000E+00  0.0000E+00  0.3015E+00  0.3015E+00
      9.519  0.0000E+00  0.0000E+00  0.3015E+00  0.3015E+00
      9.715  0.0000E+00  0.0000E+00  0.3015E+00  0.3015E+00
      9.910  0.0000E+00  0.0000E+00  0.3015E+00  0.3015E+00
     10.106  0.0000E+00  0.0000E+00  0.3015E+00  0.3015E+00
     10.301  0.0000E+00  0.0000E+00  0.3015E+00  0.3015E+00
     10.30140440    -48.37520034  301      4.48264110      1.00000000
    -48.375  0.0000E+00  0.0000E+00  0.0000E+00  0.0000E+00  0.0000E+00  0.0000E+00  0.0000E+00  0.0000E+00  0.0000E+00  0.0000E+00  0.0000E+00  0.0000E+00  0.0000E+00  0.0000E+00  0.0000E+00  0.0000E+00  0.0000E+00  0.0000E+00
    -48.180  0.0000E+00  0.0000E+00  0.0000E+00  0.0000E+00  0.0000E+00  0.0000E+00  0.0000E+00  0.0000E+00  0.0000E+00  0.0000E+00  0.0000E+00  0.0000E+00  0.0000E+00  0.0000E+00  0.0000E+00  0.0000E+00  0.0000E+00  0.0000E+00
    -47.984  0.0000E+00  0.0000E+00  0.0000E+00  0.0000E+00  0.0000E+00  0.0000E+00  0.0000E+00  0.0000E+00  0.0000E+00  0.0000E+00  0.0000E+00  0.0000E+00  0.0000E+00  0.0000E+00  0.0000E+00  0.0000E+00  0.0000E+00  0.0000E+00
    -47.788  0.0000E+00  0.0000E+00  0.0000E+00  0.0000E+00  0.0000E+00  0.0000E+00  0.0000E+00  0.0000E+00  0.0000E+00  0.0000E+00  0.0000E+00  0.0000E+00  0.0000E+00  0.0000E+00  0.0000E+00  0.0000E+00  0.0000E+00  0.0000E+00
    -47.593  0.0000E+00  0.0000E+00  0.0000E+00  0.0000E+00  0.0000E+00  0.0000E+00  0.0000E+00  0.0000E+00  0.0000E+00  0.0000E+00  0.0000E+00  0.0000E+00  0.0000E+00  0.0000E+00  0.0000E+00  0.0000E+00  0.0000E+00  0.0000E+00
    -47.397  0.0000E+00  0.0000E+00  0.0000E+00  0.0000E+00  0.0000E+00  0.0000E+00  0.0000E+00  0.0000E+00  0.0000E+00  0.0000E+00  0.0000E+00  0.0000E+00  0.0000E+00  0.0000E+00  0.0000E+00  0.0000E+00  0.0000E+00  0.0000E+00
    -47.202  0.0000E+00  0.0000E+00  0.0000E+00  0.0000E+00  0.0000E+00  0.0000E+00  0.0000E+00  0.0000E+00  0.0000E+00  0.0000E+00  0.0000E+00  0.0000E+00  0.0000E+00  0.0000E+00  0.0000E+00  0.0000E+00  0.0000E+00  0.0000E+00
    -47.006  0.0000E+00  0.0000E+00  0.0000E+00  0.0000E+00  0.0000E+00  0.0000E+00  0.0000E+00  0.0000E+00  0.0000E+00  0.0000E+00  0.0000E+00  0.0000E+00  0.0000E+00  0.0000E+00  0.0000E+00  0.0000E+00  0.0000E+00  0.0000E+00
    -46.810  0.0000E+00  0.0000E+00  0.0000E+00  0.0000E+00  0.0000E+00  0.0000E+00  0.0000E+00  0.0000E+00  0.0000E+00  0.0000E+00  0.0000E+00  0.0000E+00  0.0000E+00  0.0000E+00  0.0000E+00  0.0000E+00  0.0000E+00  0.0000E+00
    -46.615  0.0000E+00  0.0000E+00  0.0000E+00  0.0000E+00  0.0000E+00  0.0000E+00  0.0000E+00  0.0000E+00  0.0000E+00  0.0000E+00  0.0000E+00  0.0000E+00  0.0000E+00  0.0000E+00  0.0000E+00  0.0000E+00  0.0000E+00  0.0000E+00
    -46.419  0.0000E+00  0.0000E+00  0.0000E+00  0.0000E+00  0.0000E+00  0.0000E+00  0.0000E+00  0.0000E+00  0.0000E+00  0.0000E+00  0.0000E+00  0.0000E+00  0.0000E+00  0.0000E+00  0.0000E+00  0.0000E+00  0.0000E+00  0.0000E+00
    -46.224  0.0000E+00  0.0000E+00  0.0000E+00  0.0000E+00  0.0000E+00  0.0000E+00  0.0000E+00  0.0000E+00  0.0000E+00  0.0000E+00  0.0000E+00  0.0000E+00  0.0000E+00  0.0000E+00  0.0000E+00  0.0000E+00  0.0000E+00  0.0000E+00
    -46.028  0.0000E+00  0.0000E+00  0.0000E+00  0.0000E+00  0.0000E+00  0.0000E+00  0.0000E+00  0.0000E+00  0.0000E+00  0.0000E+00  0.0000E+00  0.0000E+00  0.0000E+00  0.0000E+00  0.0000E+00  0.0000E+00  0.0000E+00  0.0000E+00
    -45.833  0.0000E+00  0.0000E+00  0.0000E+00  0.0000E+00  0.0000E+00  0.0000E+00  0.0000E+00  0.0000E+00  0.0000E+00  0.0000E+00  0.0000E+00  0.0000E+00  0.0000E+00  0.0000E+00  0.0000E+00  0.0000E+00  0.0000E+00  0.0000E+00
    -45.637  0.4321E-05  0.6761E-04  0.3851E-05  0.2837E-01  0.6070E-04  0.5043E+01  0.3124E-06  0.5027E-01  0.7111E-10  0.5535E-06  0.1091E-06  0.1740E-03  0.2152E-06  0.3938E-04  0.8668E-08  0.2583E-05  0.4124E-06  0.1270E-03
    -45.441  0.0000E+00  0.0000E+00  0.0000E+00  0.0000E+00  0.0000E+00  0.0000E+00  0.0000E+00  0.0000E+00  0.0000E+00  0.0000E+00  0.0000E+00  0.0000E+00  0.0000E+00  0.0000E+00  0.0000E+00  0.0000E+00  0.0000E+00  0.0000E+00
    -45.246  0.6484E-07  0.5450E-04  0.1154E-03  0.5045E+01  0.8877E-05  0.2847E-01  0.1067E-13  0.2988E-07  0.7891E-12  0.3086E-10  0.5539E-05  0.3067E-04  0.2603E-06  0.7131E-05  0.4342E-12  0.4878E-11  0.1589E-06  0.3743E-05
    -45.050  0.0000E+00  0.0000E+00  0.0000E+00  0.0000E+00  0.0000E+00  0.0000E+00  0.0000E+00  0.0000E+00  0.0000E+00  0.0000E+00  0.0000E+00  0.0000E+00  0.0000E+00  0.0000E+00  0.0000E+00  0.0000E+00  0.0000E+00  0.0000E+00
    -44.855  0.0000E+00  0.0000E+00  0.0000E+00  0.0000E+00  0.0000E+00  0.0000E+00  0.0000E+00  0.0000E+00  0.0000E+00  0.0000E+00  0.0000E+00  0.0000E+00  0.0000E+00  0.0000E+00  0.0000E+00  0.0000E+00  0.0000E+00  0.0000E+00
    -44.659  0.0000E+00  0.0000E+00  0.0000E+00  0.0000E+00  0.0000E+00  0.0000E+00  0.0000E+00  0.0000E+00  0.0000E+00  0.0000E+00  0.0000E+00  0.0000E+00  0.0000E+00  0.0000E+00  0.0000E+00  0.0000E+00  0.0000E+00  0.0000E+00
    -44.463  0.0000E+00  0.0000E+00  0.0000E+00  0.0000E+00  0.0000E+00  0.0000E+00  0.0000E+00  0.0000E+00  0.0000E+00  0.0000E+00  0.0000E+00  0.0000E+00  0.0000E+00  0.0000E+00  0.0000E+00  0.0000E+00  0.0000E+00  0.0000E+00
    -44.268  0.0000E+00  0.0000E+00  0.0000E+00  0.0000E+00  0.0000E+00  0.0000E+00  0.0000E+00  0.0000E+00  0.0000E+00  0.0000E+00  0.0000E+00  0.0000E+00  0.0000E+00  0.0000E+00  0.0000E+00  0.0000E+00  0.0000E+00  0.0000E+00
    -44.072  0.0000E+00  0.0000E+00  0.0000E+00  0.0000E+00  0.0000E+00  0.0000E+00  0.0000E+00  0.0000E+00  0.0000E+00  0.0000E+00  0.0000E+00  0.0000E+00  0.0000E+00  0.0000E+00  0.0000E+00  0.0000E+00  0.0000E+00  0.0000E+00
    -43.877  0.0000E+00  0.0000E+00  0.0000E+00  0.0000E+00  0.0000E+00  0.0000E+00  0.0000E+00  0.0000E+00  0.0000E+00  0.0000E+00  0.0000E+00  0.0000E+00  0.0000E+00  0.0000E+00  0.0000E+00  0.0000E+00  0.0000E+00  0.0000E+00
    -43.681  0.0000E+00  0.0000E+00  0.0000E+00  0.0000E+00  0.0000E+00  0.0000E+00  0.0000E+00  0.0000E+00  0.0000E+00  0.0000E+00  0.0000E+00  0.0000E+00  0.0000E+00  0.0000E+00  0.0000E+00  0.0000E+00  0.0000E+00  0.0000E+00
    -43.485  0.1513E-08  0.1788E-11  0.1354E-07  0.1626E-11  0.7146E-07  0.7557E-12  0.5081E+01  0.1646E-04  0.6864E-04  0.4297E-08  0.2878E-10  0.7960E-12  0.3028E-10  0.8123E-13  0.2847E-03  0.5625E-06  0.7651E-10  0.6185E-13
    -43.290  0.4844E-18  0.7080E-18  0.1214E-15  0.1392E-17  0.3706E-13  0.7206E-17  0.5021E-21  0.2471E-25  0.5192E-25  0.1036E-25  0.1853E-17  0.1223E-19  0.3249E-18  0.2742E-19  0.6746E-24  0.1454E-25  0.1251E-17  0.4726E-19
    -43.094  0.0000E+00  0.0000E+00  0.0000E+00  0.0000E+00  0.0000E+00  0.0000E+00  0.0000E+00  0.0000E+00  0.0000E+00  0.0000E+00  0.0000E+00  0.0000E+00  0.0000E+00  0.0000E+00  0.0000E+00  0.0000E+00  0.0000E+00  0.0000E+00
    -42.899  0.0000E+00  0.0000E+00  0.0000E+00  0.0000E+00  0.0000E+00  0.0000E+00  0.0000E+00  0.0000E+00  0.0000E+00  0.0000E+00  0.0000E+00  0.0000E+00  0.0000E+00  0.0000E+00  0.0000E+00  0.0000E+00  0.0000E+00  0.0000E+00
    -42.703  0.0000E+00  0.0000E+00  0.0000E+00  0.0000E+00  0.0000E+00  0.0000E+00  0.0000E+00  0.0000E+00  0.0000E+00  0.0000E+00  0.0000E+00  0.0000E+00  0.0000E+00  0.0000E+00  0.0000E+00  0.0000E+00  0.0000E+00  0.0000E+00
    -42.508  0.6988E-04  0.5647E-07  0.5055E+01  0.1657E-03  0.1652E-01  0.3973E-05  0.1754E-07  0.1017E-13  0.1504E-09  0.9063E-13  0.5548E-04  0.8125E-05  0.1177E-04  0.4045E-06  0.4779E-10  0.2850E-13  0.5850E-06  0.2160E-06
    -42.312  0.0000E+00  0.0000E+00  0.0000E+00  0.0000E+00  0.0000E+00  0.0000E+00  0.0000E+00  0.0000E+00  0.0000E+00  0.0000E+00  0.0000E+00  0.0000E+00  0.0000E+00  0.0000E+00  0.0000E+00  0.0000E+00  0.0000E+00  0.0000E+00
    -42.116  0.0000E+00  0.0000E+00  0.0000E+00  0.0000E+00  0.0000E+00  0.0000E+00  0.0000E+00  0.0000E+00  0.0000E+00  0.0000E+00  0.0000E+00  0.0000E+00  0.0000E+00  0.0000E+00  0.0000E+00  0.0000E+00  0.0000E+00  0.0000E+00
    -41.921  0.0000E+00  0.0000E+00  0.0000E+00  0.0000E+00  0.0000E+00  0.0000E+00  0.0000E+00  0.0000E+00  0.0000E+00  0.0000E+00  0.0000E+00  0.0000E+00  0.0000E+00  0.0000E+00  0.0000E+00  0.0000E+00  0.0000E+00  0.0000E+00
    -41.725  0.0000E+00  0.0000E+00  0.0000E+00  0.0000E+00  0.0000E+00  0.0000E+00  0.0000E+00  0.0000E+00  0.0000E+00  0.0000E+00  0.0000E+00  0.0000E+00  0.0000E+00  0.0000E+00  0.0000E+00  0.0000E+00  0.0000E+00  0.0000E+00
    -41.530  0.0000E+00  0.0000E+00  0.0000E+00  0.0000E+00  0.0000E+00  0.0000E+00  0.0000E+00  0.0000E+00  0.0000E+00  0.0000E+00  0.0000E+00  0.0000E+00  0.0000E+00  0.0000E+00  0.0000E+00  0.0000E+00  0.0000E+00  0.0000E+00
    -41.334  0.0000E+00  0.0000E+00  0.0000E+00  0.0000E+00  0.0000E+00  0.0000E+00  0.0000E+00  0.0000E+00  0.0000E+00  0.0000E+00  0.0000E+00  0.0000E+00  0.0000E+00  0.0000E+00  0.0000E+00  0.0000E+00  0.0000E+00  0.0000E+00
    -41.138  0.0000E+00  0.0000E+00  0.0000E+00  0.0000E+00  0.0000E+00  0.0000E+00  0.0000E+00  0.0000E+00  0.0000E+00  0.0000E+00  0.0000E+00  0.0000E+00  0.0000E+00  0.0000E+00  0.0000E+00  0.0000E+00  0.0000E+00  0.0000E+00
    -40.943  0.0000E+00  0.0000E+00  0.0000E+00  0.0000E+00  0.0000E+00  0.0000E+00  0.0000E+00  0.0000E+00  0.0000E+00  0.0000E+00  0.0000E+00  0.0000E+00  0.0000E+00  0.0000E+00  0.0000E+00  0.0000E+00  0.0000E+00  0.0000E+00
    -40.747  0.0000E+00  0.0000E+00  0.0000E+00  0.0000E+00  0.0000E+00  0.0000E+00  0.0000E+00  0.0000E+00  0.0000E+00  0.0000E+00  0.0000E+00  0.0000E+00  0.0000E+00  0.0000E+00  0.0000E+00  0.0000E+00  0.0000E+00  0.0000E+00
    -40.552  0.0000E+00  0.0000E+00  0.0000E+00  0.0000E+00  0.0000E+00  0.0000E+00  0.0000E+00  0.0000E+00  0.0000E+00  0.0000E+00  0.0000E+00  0.0000E+00  0.0000E+00  0.0000E+00  0.0000E+00  0.0000E+00  0.0000E+00  0.0000E+00
    -40.356  0.0000E+00  0.0000E+00  0.0000E+00  0.0000E+00  0.0000E+00  0.0000E+00  0.0000E+00  0.0000E+00  0.0000E+00  0.0000E+00  0.0000E+00  0.0000E+00  0.0000E+00  0.0000E+00  0.0000E+00  0.0000E+00  0.0000E+00  0.0000E+00
    -40.160  0.0000E+00  0.0000E+00  0.0000E+00  0.0000E+00  0.0000E+00  0.0000E+00  0.0000E+00  0.0000E+00  0.0000E+00  0.0000E+00  0.0000E+00  0.0000E+00  0.0000E+00  0.0000E+00  0.0000E+00  0.0000E+00  0.0000E+00  0.0000E+00
    -39.965  0.0000E+00  0.0000E+00  0.0000E+00  0.0000E+00  0.0000E+00  0.0000E+00  0.0000E+00  0.0000E+00  0.0000E+00  0.0000E+00  0.0000E+00  0.0000E+00  0.0000E+00  0.0000E+00  0.0000E+00  0.0000E+00  0.0000E+00  0.0000E+00
    -39.769  0.0000E+00  0.0000E+00  0.0000E+00  0.0000E+00  0.0000E+00  0.0000E+00  0.0000E+00  0.0000E+00  0.0000E+00  0.0000E+00  0.0000E+00  0.0000E+00  0.0000E+00  0.0000E+00  0.0000E+00  0.0000E+00  0.0000E+00  0.0000E+00
    -39.574  0.0000E+00  0.0000E+00  0.0000E+00  0.0000E+00  0.0000E+00  0.0000E+00  0.0000E+00  0.0000E+00  0.0000E+00  0.0000E+00  0.0000E+00  0.0000E+00  0.0000E+00  0.0000E+00  0.0000E+00  0.0000E+00  0.0000E+00  0.0000E+00
    -39.378  0.0000E+00  0.0000E+00  0.0000E+00  0.0000E+00  0.0000E+00  0.0000E+00  0.0000E+00  0.0000E+00  0.0000E+00  0.0000E+00  0.0000E+00  0.0000E+00  0.0000E+00  0.0000E+00  0.0000E+00  0.0000E+00  0.0000E+00  0.0000E+00
    -39.183  0.0000E+00  0.0000E+00  0.0000E+00  0.0000E+00  0.0000E+00  0.0000E+00  0.0000E+00  0.0000E+00  0.0000E+00  0.0000E+00  0.0000E+00  0.0000E+00  0.0000E+00  0.0000E+00  0.0000E+00  0.0000E+00  0.0000E+00  0.0000E+00
    -38.987  0.0000E+00  0.0000E+00  0.0000E+00  0.0000E+00  0.0000E+00  0.0000E+00  0.0000E+00  0.0000E+00  0.0000E+00  0.0000E+00  0.0000E+00  0.0000E+00  0.0000E+00  0.0000E+00  0.0000E+00  0.0000E+00  0.0000E+00  0.0000E+00
    -38.791  0.0000E+00  0.0000E+00  0.0000E+00  0.0000E+00  0.0000E+00  0.0000E+00  0.0000E+00  0.0000E+00  0.0000E+00  0.0000E+00  0.0000E+00  0.0000E+00  0.0000E+00  0.0000E+00  0.0000E+00  0.0000E+00  0.0000E+00  0.0000E+00
    -38.596  0.0000E+00  0.0000E+00  0.0000E+00  0.0000E+00  0.0000E+00  0.0000E+00  0.0000E+00  0.0000E+00  0.0000E+00  0.0000E+00  0.0000E+00  0.0000E+00  0.0000E+00  0.0000E+00  0.0000E+00  0.0000E+00  0.0000E+00  0.0000E+00