       N       E                     dE             d eps       ncg     rms          rms(c)
DAV:   1     0.130651143980E+04    0.13065E+04   -0.48117E+04   240   0.166E+03
DAV:   2     0.806317643132E+02   -0.12259E+04   -0.11539E+04   256   0.540E+02
DAV:   3    -0.110941448111E+03   -0.19157E+03   -0.18393E+03   304   0.199E+02
DAV:   4    -0.121016945021E+03   -0.10075E+02   -0.10003E+02   272   0.461E+01
DAV:   5    -0.121246352120E+03   -0.22941E+00   -0.22877E+00   276   0.755E+00    0.642E+01
RMM:   6    -0.128400633788E+03   -0.71543E+01   -0.51204E+02   306   0.908E+01    0.800E+01
RMM:   7    -0.952835008199E+02    0.33117E+02   -0.22123E+02   270   0.620E+01    0.242E+01
RMM:   8    -0.928297563643E+02    0.24537E+01   -0.18589E+01   271   0.165E+01    0.149E+01
RMM:   9    -0.915548339066E+02    0.12749E+01   -0.37527E+00   266   0.848E+00    0.584E+00
RMM:  10    -0.916214818234E+02   -0.66648E-01   -0.15545E+00   269   0.510E+00    0.339E+00
RMM:  11    -0.916041843537E+02    0.17297E-01   -0.17231E-01   285   0.177E+00    0.203E+00
RMM:  12    -0.915983831250E+02    0.58012E-02   -0.88509E-02   260   0.134E+00    0.117E+00
RMM:  13    -0.915956268904E+02    0.27562E-02   -0.25180E-02   274   0.708E-01    0.399E-01
RMM:  14    -0.915954655821E+02    0.16131E-03   -0.28285E-03   291   0.224E-01    0.156E-01
RMM:  15    -0.915953933455E+02    0.72237E-04   -0.58792E-04   255   0.109E-01    0.108E-01
RMM:  16    -0.915953716115E+02    0.21734E-04   -0.19767E-04   241   0.638E-02    0.517E-02
RMM:  17    -0.915953891743E+02   -0.17563E-04   -0.56577E-05   204   0.335E-02    0.206E-02
RMM:  18    -0.915953952680E+02   -0.60937E-05   -0.10659E-05   140   0.173E-02
   1 F= -.91595395E+02 E0= -.91595395E+02  d E =-.915954E+02  mag=    -0.0000
       N       E                     dE             d eps       ncg     rms          rms(c)
DAV:   1    -0.908916236024E+02    0.70377E+00   -0.44289E+02   240   0.116E+02    0.790E+00
RMM:   2    -0.928010575102E+02   -0.19094E+01   -0.19450E+01   294   0.222E+01    0.695E+00
RMM:   3    -0.925779807799E+02    0.22308E+00   -0.66057E-01   284   0.431E+00    0.347E+00
RMM:   4    -0.925251974028E+02    0.52783E-01   -0.15768E-01   246   0.177E+00    0.209E+00
RMM:   5    -0.925195806984E+02    0.56167E-02   -0.62756E-02   266   0.104E+00    0.633E-01
RMM:   6    -0.925199300650E+02   -0.34937E-03   -0.10678E-02   274   0.472E-01    0.281E-01
RMM:   7    -0.925189259902E+02    0.10041E-02   -0.29790E-03   264   0.226E-01    0.130E-01
RMM:   8    -0.925188046909E+02    0.12130E-03   -0.75310E-04   248   0.122E-01    0.475E-02
RMM:   9    -0.925187992110E+02    0.54799E-05   -0.82078E-05   246   0.399E-02
   2 F= -.92518799E+02 E0= -.92518799E+02  d E =-.923404E+00  mag=    -0.0000
       N       E                     dE             d eps       ncg     rms          rms(c)
DAV:   1    -0.925183126277E+02    0.49206E-03   -0.78526E-01   240   0.487E+00    0.313E-01
RMM:   2    -0.925208943271E+02   -0.25817E-02   -0.26515E-02   284   0.826E-01    0.233E-01
RMM:   3    -0.925206512724E+02    0.24305E-03   -0.89498E-04   300   0.146E-01    0.159E-01
RMM:   4    -0.925206045904E+02    0.46682E-04   -0.33683E-04   234   0.772E-02    0.723E-02
RMM:   5    -0.925205992641E+02    0.53263E-05   -0.13607E-04   236   0.547E-02    0.393E-02
RMM:   6    -0.925205918230E+02    0.74411E-05   -0.13349E-05   143   0.215E-02
   3 F= -.92520592E+02 E0= -.92520592E+02  d E =-.925197E+00  mag=    -0.0000
       N       E                     dE             d eps       ncg     rms          rms(c)
DAV:   1    -0.921003922731E+02    0.42021E+00   -0.20053E+01   328   0.698E+01    0.292E+00
RMM:   2    -0.925775018854E+02   -0.47711E+00   -0.47473E+00   306   0.108E+01    0.146E+00
RMM:   3    -0.925942546105E+02   -0.16753E-01   -0.12519E-01   274   0.175E+00    0.752E-01
RMM:   4    -0.925923874390E+02    0.18672E-02   -0.11130E-02   316   0.422E-01    0.621E-01
RMM:   5    -0.925911294941E+02    0.12579E-02   -0.41667E-03   258   0.319E-01    0.397E-01
RMM:   6    -0.925906682832E+02    0.46121E-03   -0.31538E-03   250   0.275E-01    0.837E-02
RMM:   7    -0.925906666498E+02    0.16334E-05   -0.23490E-04   301   0.722E-02    0.358E-02
RMM:   8    -0.925906655474E+02    0.11024E-05   -0.23007E-05   151   0.244E-02
   4 F= -.92590666E+02 E0= -.92590666E+02  d E =-.700737E-01  mag=    -0.0000
       N       E                     dE             d eps       ncg     rms          rms(c)
DAV:   1    -0.882922940253E+02    0.42984E+01   -0.18246E+02   328   0.207E+02    0.103E+01
RMM:   2    -0.925409228964E+02   -0.42486E+01   -0.41618E+01   296   0.342E+01    0.571E+00
RMM:   3    -0.928554526193E+02   -0.31453E+00   -0.30933E+00   298   0.712E+00    0.289E+00
RMM:   4    -0.928313400532E+02    0.24113E-01   -0.79097E-02   326   0.120E+00    0.235E+00
RMM:   5    -0.928157227164E+02    0.15617E-01   -0.23343E-02   270   0.793E-01    0.125E+00
RMM:   6    -0.928143633539E+02    0.13594E-02   -0.21830E-02   257   0.763E-01    0.259E-01
RMM:   7    -0.928144882488E+02   -0.12489E-03   -0.28133E-03   295   0.259E-01    0.162E-01
RMM:   8    -0.928144107564E+02    0.77492E-04   -0.39047E-04   293   0.961E-02    0.104E-01
RMM:   9    -0.928143824954E+02    0.28261E-04   -0.26185E-04   257   0.890E-02    0.405E-02
RMM:  10    -0.928143782170E+02    0.42784E-05   -0.45618E-05   191   0.340E-02
   5 F= -.92814378E+02 E0= -.92814378E+02  d E =-.293786E+00  mag=    -0.0000
       N       E                     dE             d eps       ncg     rms          rms(c)
DAV:   1    -0.748353852813E+02    0.17979E+02   -0.78739E+02   328   0.398E+02    0.243E+01
RMM:   2    -0.940497700166E+02   -0.19214E+02   -0.18610E+02   292   0.708E+01    0.169E+01
RMM:   3    -0.931279708074E+02    0.92180E+00   -0.11433E+01   282   0.173E+01    0.693E+00
RMM:   4    -0.930743817588E+02    0.53589E-01   -0.75161E-01   311   0.401E+00    0.467E+00
RMM:   5    -0.930296199679E+02    0.44762E-01   -0.15918E-01   265   0.171E+00    0.314E+00
RMM:   6    -0.930327893549E+02   -0.31694E-02   -0.17041E-01   246   0.189E+00    0.120E+00
RMM:   7    -0.930283028103E+02    0.44865E-02   -0.32236E-02   272   0.877E-01    0.735E-01
RMM:   8    -0.930261631599E+02    0.21397E-02   -0.73801E-03   270   0.400E-01    0.280E-01
RMM:   9    -0.930259692964E+02    0.19386E-03   -0.80834E-04   296   0.117E-01    0.145E-01
RMM:  10    -0.930258800989E+02    0.89198E-04   -0.57502E-04   255   0.112E-01    0.602E-02
RMM:  11    -0.930258854621E+02   -0.53633E-05   -0.16982E-04   239   0.598E-02    0.606E-02
RMM:  12    -0.930258666225E+02    0.18840E-04   -0.44522E-05   178   0.336E-02    0.169E-02
RMM:  13    -0.930258660715E+02    0.55101E-06   -0.60925E-06   140   0.141E-02
   6 F= -.93025866E+02 E0= -.93025866E+02  d E =-.505274E+00  mag=     0.0000
       N       E                     dE             d eps       ncg     rms          rms(c)
DAV:   1    -0.890299628520E+02    0.39959E+01   -0.19293E+02   328   0.209E+02    0.998E+00
RMM:   2    -0.932516406497E+02   -0.42217E+01   -0.42631E+01   290   0.351E+01    0.854E+00
RMM:   3    -0.930740431807E+02    0.17760E+00   -0.34014E+00   280   0.878E+00    0.384E+00
RMM:   4    -0.930419944335E+02    0.32049E-01   -0.14834E-01   305   0.199E+00    0.306E+00
RMM:   5    -0.930234486925E+02    0.18546E-01   -0.35842E-02   271   0.969E-01    0.178E+00
RMM:   6    -0.930273198538E+02   -0.38712E-02   -0.35732E-02   252   0.986E-01    0.363E-01
RMM:   7    -0.930268658100E+02    0.45404E-03   -0.41779E-03   304   0.307E-01    0.230E-01
RMM:   8    -0.930266515447E+02    0.21427E-03   -0.11074E-03   267   0.157E-01    0.162E-01
RMM:   9    -0.930265541204E+02    0.97424E-04   -0.62798E-04   270   0.122E-01    0.903E-02
RMM:  10    -0.930265197537E+02    0.34367E-04   -0.12551E-04   260   0.630E-02    0.215E-02
RMM:  11    -0.930265181860E+02    0.15676E-05   -0.17883E-05   145   0.211E-02
   7 F= -.93026518E+02 E0= -.93026518E+02  d E =-.505926E+00  mag=     0.0000
       N       E                     dE             d eps       ncg     rms          rms(c)
DAV:   1    -0.920175350215E+02    0.10090E+01   -0.46448E+01   328   0.105E+02    0.479E+00
RMM:   2    -0.930104850706E+02   -0.99295E+00   -0.98369E+00   300   0.161E+01    0.252E+00
RMM:   3    -0.930868247534E+02   -0.76340E-01   -0.55324E-01   280   0.320E+00    0.147E+00
RMM:   4    -0.930787708331E+02    0.80539E-02   -0.31232E-02   294   0.881E-01    0.118E+00
RMM:   5    -0.930756432736E+02    0.31276E-02   -0.13479E-02   260   0.574E-01    0.721E-01
RMM:   6    -0.930752271671E+02    0.41611E-03   -0.79817E-03   250   0.441E-01    0.122E-01
RMM:   7    -0.930751463703E+02    0.80797E-04   -0.75320E-04   315   0.133E-01    0.898E-02
RMM:   8    -0.930751302644E+02    0.16106E-04   -0.20130E-04   239   0.656E-02    0.767E-02
RMM:   9    -0.930750973122E+02    0.32952E-04   -0.80254E-05   216   0.494E-02    0.241E-02
RMM:  10    -0.930750965512E+02    0.76102E-06   -0.11568E-05   140   0.206E-02
   8 F= -.93075097E+02 E0= -.93075097E+02  d E =-.554505E+00  mag=     0.0000
       N       E                     dE             d eps       ncg     rms          rms(c)
DAV:   1    -0.930762423228E+02   -0.11450E-02   -0.47596E-01   336   0.981E+00    0.425E-01
RMM:   2    -0.930860283229E+02   -0.97860E-02   -0.97580E-02   292   0.171E+00    0.287E-01
RMM:   3    -0.930859687087E+02    0.59614E-04   -0.64175E-03   288   0.374E-01    0.167E-01
RMM:   4    -0.930858903281E+02    0.78381E-04   -0.31052E-04   281   0.936E-02    0.132E-01
RMM:   5    -0.930858408931E+02    0.49435E-04   -0.15055E-04   251   0.629E-02    0.586E-02
RMM:   6    -0.930858555408E+02   -0.14648E-04   -0.55771E-05   208   0.402E-02    0.272E-02
RMM:   7    -0.930858522818E+02    0.32590E-05   -0.13292E-05   142   0.218E-02
   9 F= -.93085852E+02 E0= -.93085852E+02  d E =-.107557E-01  mag=     0.0000
       N       E                     dE             d eps       ncg     rms          rms(c)
DAV:   1    -0.930312648084E+02    0.54591E-01   -0.40009E+00   336   0.294E+01    0.128E+00
RMM:   2    -0.931181074852E+02   -0.86843E-01   -0.87006E-01   300   0.477E+00    0.877E-01
RMM:   3    -0.931142158884E+02    0.38916E-02   -0.35473E-02   278   0.912E-01    0.515E-01
RMM:   4    -0.931136288881E+02    0.58700E-03   -0.32804E-03   278   0.291E-01    0.421E-01
RMM:   5    -0.931131341702E+02    0.49472E-03   -0.14432E-03   262   0.192E-01    0.149E-01
RMM:   6    -0.931132486327E+02   -0.11446E-03   -0.27954E-04   269   0.875E-02    0.408E-02
RMM:   7    -0.931132459909E+02    0.26417E-05   -0.54477E-05   184   0.358E-02
  10 F= -.93113246E+02 E0= -.93113246E+02  d E =-.381494E-01  mag=     0.0000
       N       E                     dE             d eps       ncg     rms          rms(c)
DAV:   1    -0.928156535337E+02    0.29760E+00   -0.15967E+01   328   0.589E+01    0.264E+00
RMM:   2    -0.931601113907E+02   -0.34446E+00   -0.34406E+00   301   0.952E+00    0.178E+00
RMM:   3    -0.931450131452E+02    0.15098E-01   -0.13975E-01   281   0.180E+00    0.107E+00
RMM:   4    -0.931430109788E+02    0.20022E-02   -0.13901E-02   277   0.593E-01    0.880E-01
RMM:   5    -0.931411779039E+02    0.18331E-02   -0.64684E-03   255   0.404E-01    0.336E-01
RMM:   6    -0.931417890891E+02   -0.61119E-03   -0.24915E-03   271   0.243E-01    0.229E-01
RMM:   7    -0.931415424684E+02    0.24662E-03   -0.10212E-03   269   0.152E-01    0.993E-02
RMM:   8    -0.931414823597E+02    0.60109E-04   -0.78953E-05   222   0.468E-02    0.337E-02
RMM:   9    -0.931414780762E+02    0.42836E-05   -0.42921E-05   171   0.332E-02
  11 F= -.93141478E+02 E0= -.93141478E+02  d E =-.663815E-01  mag=     0.0000
       N       E                     dE             d eps       ncg     rms          rms(c)
DAV:   1    -0.931694764775E+02   -0.27994E-01   -0.29711E-01   300   0.662E+00    0.257E-01
RMM:   2    -0.931740038404E+02   -0.45274E-02   -0.46708E-02   294   0.118E+00    0.221E-01
RMM:   3    -0.931739349084E+02    0.68932E-04   -0.27006E-03   291   0.243E-01    0.151E-01
RMM:   4    -0.931738992926E+02    0.35616E-04   -0.17594E-04   274   0.671E-02    0.130E-01
RMM:   5    -0.931738917872E+02    0.75053E-05   -0.17360E-04   245   0.664E-02    0.997E-02
RMM:   6    -0.931738752735E+02    0.16514E-04   -0.15747E-04   249   0.652E-02    0.435E-02
RMM:   7    -0.931738701900E+02    0.50835E-05   -0.14696E-05   140   0.238E-02
  12 F= -.93173870E+02 E0= -.93173870E+02  d E =-.323921E-01  mag=     0.0000
       N       E                     dE             d eps       ncg     rms          rms(c)
DAV:   1    -0.932205034979E+02   -0.46628E-01   -0.26671E+00   280   0.198E+01    0.785E-01
RMM:   2    -0.932609961257E+02   -0.40493E-01   -0.41897E-01   295   0.353E+00    0.667E-01
RMM:   3    -0.932609129280E+02    0.83198E-04   -0.23974E-02   291   0.717E-01    0.453E-01
RMM:   4    -0.932605236435E+02    0.38928E-03   -0.15027E-03   279   0.198E-01    0.373E-01
RMM:   5    -0.932602813170E+02    0.24233E-03   -0.10997E-03   252   0.177E-01    0.157E-01
RMM:   6    -0.932603582608E+02   -0.76944E-04   -0.25092E-04   270   0.867E-02    0.550E-02
RMM:   7    -0.932603539012E+02    0.43597E-05   -0.62067E-05   220   0.373E-02
  13 F= -.93260354E+02 E0= -.93260354E+02  d E =-.118876E+00  mag=     0.0000
       N       E                     dE             d eps       ncg     rms          rms(c)
DAV:   1    -0.932231683093E+02    0.37190E-01   -0.10668E+01   272   0.397E+01    0.162E+00
RMM:   2    -0.933857286068E+02   -0.16256E+00   -0.16844E+00   295   0.706E+00    0.140E+00
RMM:   3    -0.933854343530E+02    0.29425E-03   -0.95742E-02   295   0.144E+00    0.946E-01
RMM:   4    -0.933838590760E+02    0.15753E-02   -0.66520E-03   278   0.413E-01    0.769E-01
RMM:   5    -0.933831234954E+02    0.73558E-03   -0.52091E-03   253   0.380E-01    0.378E-01
RMM:   6    -0.933835878347E+02   -0.46434E-03   -0.29139E-03   265   0.277E-01    0.286E-01
RMM:   7    -0.933831970711E+02    0.39076E-03   -0.92414E-04   267   0.153E-01    0.101E-01
RMM:   8    -0.933831525222E+02    0.44549E-04   -0.10572E-04   252   0.471E-02    0.651E-02
RMM:   9    -0.933831150334E+02    0.37489E-04   -0.82580E-05   244   0.518E-02    0.322E-02
RMM:  10    -0.933831126793E+02    0.23541E-05   -0.31756E-05   159   0.305E-02
  14 F= -.93383113E+02 E0= -.93383113E+02  d E =-.241635E+00  mag=    -0.0000
       N       E                     dE             d eps       ncg     rms          rms(c)
DAV:   1    -0.927704724190E+02    0.61264E+00   -0.42655E+01   280   0.793E+01    0.343E+00
RMM:   2    -0.934342744762E+02   -0.66380E+00   -0.68800E+00   293   0.141E+01    0.309E+00
RMM:   3    -0.934237225046E+02    0.10552E-01   -0.36891E-01   295   0.284E+00    0.206E+00
RMM:   4    -0.934170341100E+02    0.66884E-02   -0.33375E-02   278   0.904E-01    0.160E+00
RMM:   5    -0.934139838953E+02    0.30502E-02   -0.25519E-02   258   0.826E-01    0.683E-01
RMM:   6    -0.934144244823E+02   -0.44059E-03   -0.45556E-03   270   0.370E-01    0.251E-01
RMM:   7    -0.934143225241E+02    0.10196E-03   -0.10604E-03   278   0.149E-01    0.181E-01
RMM:   8    -0.934142147729E+02    0.10775E-03   -0.48292E-04   262   0.104E-01    0.142E-01
RMM:   9    -0.934140658861E+02    0.14889E-03   -0.29471E-04   255   0.960E-02    0.495E-02
RMM:  10    -0.934140598786E+02    0.60076E-05   -0.10676E-04   263   0.517E-02    0.273E-02
RMM:  11    -0.934140559926E+02    0.38860E-05   -0.13193E-05   141   0.205E-02
  15 F= -.93414056E+02 E0= -.93414056E+02  d E =-.272578E+00  mag=    -0.0000
       N       E                     dE             d eps       ncg     rms          rms(c)
DAV:   1    -0.933307164426E+02    0.83343E-01   -0.70226E+00   280   0.323E+01    0.137E+00
RMM:   2    -0.934322016121E+02   -0.10149E+00   -0.10599E+00   298   0.577E+00    0.122E+00
RMM:   3    -0.934389610433E+02   -0.67594E-02   -0.63603E-02   287   0.113E+00    0.852E-01
RMM:   4    -0.934378870882E+02    0.10740E-02   -0.41537E-03   285   0.324E-01    0.702E-01
RMM:   5    -0.934372372694E+02    0.64982E-03   -0.39669E-03   251   0.344E-01    0.245E-01
RMM:   6    -0.934374841530E+02   -0.24688E-03   -0.81936E-04   277   0.152E-01    0.126E-01
RMM:   7    -0.934374313018E+02    0.52851E-04   -0.27108E-04   253   0.792E-02    0.906E-02
RMM:   8    -0.934373923395E+02    0.38962E-04   -0.61533E-05   214   0.404E-02    0.562E-02
RMM:   9    -0.934373651398E+02    0.27200E-04   -0.70690E-05   227   0.487E-02    0.205E-02
RMM:  10    -0.934373648454E+02    0.29432E-06   -0.13946E-05   140   0.220E-02
  16 F= -.93437365E+02 E0= -.93437365E+02  d E =-.295887E+00  mag=    -0.0000
       N       E                     dE             d eps       ncg     rms          rms(c)
DAV:   1    -0.934595242432E+02   -0.22159E-01   -0.92546E-01   240   0.541E+00    0.262E-01
RMM:   2    -0.934623549247E+02   -0.28307E-02   -0.30128E-02   296   0.907E-01    0.181E-01
RMM:   3    -0.934623675409E+02   -0.12616E-04   -0.11402E-03   300   0.168E-01    0.114E-01
RMM:   4    -0.934623331293E+02    0.34412E-04   -0.15303E-04   232   0.516E-02    0.770E-02
RMM:   5    -0.934623405016E+02   -0.73723E-05   -0.15852E-04   239   0.574E-02    0.491E-02
RMM:   6    -0.934623322638E+02    0.82377E-05   -0.42825E-05   172   0.330E-02
  17 F= -.93462332E+02 E0= -.93462332E+02  d E =-.249674E-01  mag=    -0.0000
       N       E                     dE             d eps       ncg     rms          rms(c)
DAV:   1    -0.935031241294E+02   -0.40784E-01   -0.83230E+00   240   0.162E+01    0.790E-01
RMM:   2    -0.935298821080E+02   -0.26758E-01   -0.28296E-01   293   0.272E+00    0.524E-01
RMM:   3    -0.935289708420E+02    0.91127E-03   -0.10514E-02   297   0.512E-01    0.347E-01
RMM:   4    -0.935286181671E+02    0.35267E-03   -0.11688E-03   266   0.145E-01    0.199E-01
RMM:   5    -0.935287486019E+02   -0.13043E-03   -0.10775E-03   249   0.152E-01    0.126E-01
RMM:   6    -0.935286693733E+02    0.79229E-04   -0.27070E-04   262   0.799E-02    0.524E-02
RMM:   7    -0.935286525653E+02    0.16808E-04   -0.48544E-05   167   0.334E-02    0.233E-02
RMM:   8    -0.935286490001E+02    0.35652E-05   -0.87449E-06   140   0.161E-02
  18 F= -.93528649E+02 E0= -.93528649E+02  d E =-.912842E-01  mag=     0.0000
       N       E                     dE             d eps       ncg     rms          rms(c)
DAV:   1    -0.935179508721E+02    0.10702E-01   -0.33209E+01   240   0.325E+01    0.159E+00
RMM:   2    -0.936276718007E+02   -0.10972E+00   -0.11572E+00   295   0.545E+00    0.998E-01
RMM:   3    -0.936231972343E+02    0.44746E-02   -0.42339E-02   295   0.104E+00    0.740E-01
RMM:   4    -0.936219822813E+02    0.12150E-02   -0.56753E-03   265   0.365E-01    0.387E-01
RMM:   5    -0.936223657563E+02   -0.38348E-03   -0.55386E-03   260   0.308E-01    0.306E-01
RMM:   6    -0.936219833413E+02    0.38242E-03   -0.14212E-03   277   0.176E-01    0.115E-01
RMM:   7    -0.936219163789E+02    0.66962E-04   -0.27922E-04   265   0.731E-02    0.507E-02
RMM:   8    -0.936218957151E+02    0.20664E-04   -0.64585E-05   207   0.386E-02    0.215E-02
RMM:   9    -0.936218939915E+02    0.17236E-05   -0.13958E-05   140   0.211E-02
  19 F= -.93621894E+02 E0= -.93621894E+02  d E =-.184529E+00  mag=     0.0000
       N       E                     dE             d eps       ncg     rms          rms(c)
DAV:   1    -0.931979995017E+02    0.42390E+00   -0.13180E+02   240   0.649E+01    0.326E+00
RMM:   2    -0.936854546653E+02   -0.48746E+00   -0.51476E+00   293   0.111E+01    0.197E+00
RMM:   3    -0.936533504984E+02    0.32104E-01   -0.21076E-01   277   0.246E+00    0.182E+00
RMM:   4    -0.936475645020E+02    0.57860E-02   -0.26320E-02   278   0.786E-01    0.117E+00
RMM:   5    -0.936453521534E+02    0.22123E-02   -0.17344E-02   258   0.549E-01    0.504E-01
RMM:   6    -0.936459037990E+02   -0.55165E-03   -0.40527E-03   261   0.303E-01    0.259E-01
RMM:   7    -0.936455286291E+02    0.37517E-03   -0.12897E-03   267   0.167E-01    0.115E-01
RMM:   8    -0.936454238398E+02    0.10479E-03   -0.42310E-04   264   0.859E-02    0.444E-02
RMM:   9    -0.936454107150E+02    0.13125E-04   -0.80090E-05   227   0.429E-02    0.215E-02
RMM:  10    -0.936454116293E+02   -0.91429E-06   -0.17816E-05   146   0.209E-02
  20 F= -.93645412E+02 E0= -.93645412E+02  d E =-.208047E+00  mag=    -0.0000
       N       E                     dE             d eps       ncg     rms          rms(c)
DAV:   1    -0.935971411316E+02    0.48270E-01   -0.21111E+01   240   0.260E+01    0.133E+00
RMM:   2    -0.936682580480E+02   -0.71117E-01   -0.74850E-01   286   0.443E+00    0.106E+00
RMM:   3    -0.936635726582E+02    0.46854E-02   -0.28608E-02   292   0.889E-01    0.589E-01
RMM:   4    -0.936628966524E+02    0.67601E-03   -0.50256E-03   262   0.303E-01    0.445E-01
RMM:   5    -0.936624992729E+02    0.39738E-03   -0.32868E-03   256   0.263E-01    0.131E-01
RMM:   6    -0.936625661400E+02   -0.66867E-04   -0.28759E-04   294   0.847E-02    0.507E-02
RMM:   7    -0.936625552129E+02    0.10927E-04   -0.75937E-05   202   0.392E-02    0.423E-02
RMM:   8    -0.936625446372E+02    0.10576E-04   -0.27194E-05   154   0.274E-02    0.182E-02
RMM:   9    -0.936625439342E+02    0.70308E-06   -0.10794E-05   140   0.181E-02
  21 F= -.93662544E+02 E0= -.93662544E+02  d E =-.225179E+00  mag=    -0.0000
       N       E                     dE             d eps       ncg     rms          rms(c)
DAV:   1    -0.935243272836E+02    0.13822E+00   -0.62616E+00   328   0.418E+01    0.163E+00
RMM:   2    -0.936893549648E+02   -0.16503E+00   -0.16506E+00   301   0.647E+00    0.819E-01
RMM:   3    -0.936959011730E+02   -0.65462E-02   -0.85296E-02   264   0.127E+00    0.499E-01
RMM:   4    -0.936949209666E+02    0.98021E-03   -0.34860E-03   304   0.293E-01    0.385E-01
RMM:   5    -0.936944545121E+02    0.46645E-03   -0.11081E-03   263   0.173E-01    0.246E-01
RMM:   6    -0.936943262783E+02    0.12823E-03   -0.13266E-03   250   0.197E-01    0.747E-02
RMM:   7    -0.936943139891E+02    0.12289E-04   -0.12541E-04   264   0.575E-02    0.418E-02
RMM:   8    -0.936943090792E+02    0.49100E-05   -0.29969E-05   162   0.279E-02
  22 F= -.93694309E+02 E0= -.93694309E+02  d E =-.317651E-01  mag=    -0.0000
       N       E                     dE             d eps       ncg     rms          rms(c)
DAV:   1    -0.924160448989E+02    0.12783E+01   -0.47981E+01   328   0.115E+02    0.484E+00
RMM:   2    -0.936867444767E+02   -0.12707E+01   -0.12669E+01   298   0.179E+01    0.276E+00
RMM:   3    -0.937498601031E+02   -0.63116E-01   -0.78547E-01   277   0.373E+00    0.144E+00
RMM:   4    -0.937430269115E+02    0.68332E-02   -0.23043E-02   311   0.706E-01    0.114E+00
RMM:   5    -0.937391156048E+02    0.39113E-02   -0.15892E-02   264   0.688E-01    0.574E-01
RMM:   6    -0.937385442092E+02    0.57140E-03   -0.65335E-03   263   0.424E-01    0.323E-01
RMM:   7    -0.937383094413E+02    0.23477E-03   -0.16697E-03   274   0.208E-01    0.172E-01
RMM:   8    -0.937382682706E+02    0.41171E-04   -0.46493E-04   270   0.102E-01    0.975E-02
RMM:   9    -0.937382321403E+02    0.36130E-04   -0.13274E-04   249   0.548E-02    0.637E-02
RMM:  10    -0.937382226291E+02    0.95112E-05   -0.74020E-05   202   0.451E-02
  23 F= -.93738223E+02 E0= -.93738223E+02  d E =-.756787E-01  mag=    -0.0000
       N       E                     dE             d eps       ncg     rms          rms(c)
DAV:   1    -0.937101127489E+02    0.28119E-01   -0.10865E+00   328   0.173E+01    0.660E-01
RMM:   2    -0.937394688557E+02   -0.29356E-01   -0.29354E-01   300   0.265E+00    0.329E-01
RMM:   3    -0.937393490269E+02    0.11983E-03   -0.13518E-02   264   0.515E-01    0.206E-01
RMM:   4    -0.937391903548E+02    0.15867E-03   -0.60355E-04   291   0.121E-01    0.158E-01
RMM:   5    -0.937391143847E+02    0.75970E-04   -0.21727E-04   260   0.753E-02    0.946E-02
RMM:   6    -0.937391136858E+02    0.69890E-06   -0.24625E-04   249   0.818E-02    0.623E-02
RMM:   7    -0.937390986079E+02    0.15078E-04   -0.66228E-05   185   0.424E-02    0.288E-02
RMM:   8    -0.937390952247E+02    0.33832E-05   -0.87940E-06   140   0.182E-02
  24 F= -.93739095E+02 E0= -.93739095E+02  d E =-.765513E-01  mag=    -0.0000
       N       E                     dE             d eps       ncg     rms          rms(c)
DAV:   1    -0.935667085296E+02    0.17239E+00   -0.14034E+01   280   0.437E+01    0.160E+00
RMM:   2    -0.937509405481E+02   -0.18423E+00   -0.18547E+00   300   0.739E+00    0.104E+00
RMM:   3    -0.937602361584E+02   -0.92956E-02   -0.10098E-01   286   0.133E+00    0.724E-01
RMM:   4    -0.937584543204E+02    0.17818E-02   -0.34684E-03   285   0.297E-01    0.573E-01
RMM:   5    -0.937581867755E+02    0.26754E-03   -0.57749E-03   257   0.381E-01    0.451E-01
RMM:   6    -0.937575864347E+02    0.60034E-03   -0.36766E-03   260   0.307E-01    0.180E-01
RMM:   7    -0.937574364936E+02    0.14994E-03   -0.61895E-04   281   0.120E-01    0.830E-02
RMM:   8    -0.937574140089E+02    0.22485E-04   -0.77444E-05   236   0.374E-02    0.586E-02
RMM:   9    -0.937573940918E+02    0.19917E-04   -0.53083E-05   186   0.402E-02    0.469E-02
RMM:  10    -0.937573807894E+02    0.13302E-04   -0.31423E-05   163   0.320E-02    0.171E-02
RMM:  11    -0.937573795814E+02    0.12080E-05   -0.68538E-06   138   0.158E-02
  25 F= -.93757380E+02 E0= -.93757380E+02  d E =-.182844E-01  mag=     0.0000
       N       E                     dE             d eps       ncg     rms          rms(c)
DAV:   1    -0.937573091711E+02    0.71618E-04   -0.65029E-03   304   0.941E-01    0.344E-02
RMM:   2    -0.937573927020E+02   -0.83531E-04   -0.84185E-04   300   0.159E-01    0.214E-02
RMM:   3    -0.937573967597E+02   -0.40578E-05   -0.43259E-05   167   0.290E-02
  26 F= -.93757397E+02 E0= -.93757397E+02  d E =-.183015E-01  mag=     0.0000
       N       E                     dE             d eps       ncg     rms          rms(c)
DAV:   1    -0.936563308388E+02    0.10106E+00   -0.11738E+01   264   0.365E+01    0.133E+00
RMM:   2    -0.937771213258E+02   -0.12079E+00   -0.12276E+00   299   0.605E+00    0.719E-01
RMM:   3    -0.937777089917E+02   -0.58767E-03   -0.61838E-02   288   0.116E+00    0.441E-01
RMM:   4    -0.937766606354E+02    0.10484E-02   -0.20134E-03   293   0.221E-01    0.344E-01
RMM:   5    -0.937761230344E+02    0.53760E-03   -0.21379E-03   243   0.235E-01    0.174E-01
RMM:   6    -0.937761355003E+02   -0.12466E-04   -0.84564E-04   262   0.146E-01    0.905E-02
RMM:   7    -0.937761032746E+02    0.32226E-04   -0.16312E-04   253   0.630E-02    0.493E-02
RMM:   8    -0.937760919033E+02    0.11371E-04   -0.20107E-05   150   0.253E-02    0.210E-02
RMM:   9    -0.937760901697E+02    0.17337E-05   -0.79800E-06   140   0.176E-02
  27 F= -.93776090E+02 E0= -.93776090E+02  d E =-.186934E-01  mag=     0.0000
       N       E                     dE             d eps       ncg     rms          rms(c)
DAV:   1    -0.936989452558E+02    0.77147E-01   -0.81800E+00   264   0.305E+01    0.111E+00
RMM:   2    -0.937845801173E+02   -0.85635E-01   -0.87007E-01   298   0.504E+00    0.590E-01
RMM:   3    -0.937833494283E+02    0.12307E-02   -0.43074E-02   287   0.974E-01    0.361E-01
RMM:   4    -0.937826516853E+02    0.69774E-03   -0.15106E-03   295   0.191E-01    0.282E-01
RMM:   5    -0.937823621339E+02    0.28955E-03   -0.14324E-03   249   0.189E-01    0.190E-01
RMM:   6    -0.937823280298E+02    0.34104E-04   -0.10229E-03   257   0.158E-01    0.117E-01
RMM:   7    -0.937822642853E+02    0.63744E-04   -0.18884E-04   263   0.684E-02    0.334E-02
RMM:   8    -0.937822598811E+02    0.44042E-05   -0.11876E-05   142   0.193E-02
  28 F= -.93782260E+02 E0= -.93782260E+02  d E =-.248631E-01  mag=     0.0000
       N       E                     dE             d eps       ncg     rms          rms(c)
DAV:   1    -0.935760078164E+02    0.20626E+00   -0.16033E+01   296   0.484E+01    0.171E+00
RMM:   2    -0.938023290852E+02   -0.22632E+00   -0.22611E+00   301   0.774E+00    0.913E-01
RMM:   3    -0.938063141133E+02   -0.39850E-02   -0.94623E-02   283   0.132E+00    0.576E-01
RMM:   4    -0.938048862888E+02    0.14278E-02   -0.40263E-03   301   0.275E-01    0.445E-01
RMM:   5    -0.938041714450E+02    0.71484E-03   -0.26141E-03   249   0.248E-01    0.288E-01
RMM:   6    -0.938040410657E+02    0.13038E-03   -0.24065E-03   262   0.243E-01    0.208E-01
RMM:   7    -0.938038550544E+02    0.18601E-03   -0.54992E-04   271   0.119E-01    0.518E-02
RMM:   8    -0.938038437663E+02    0.11288E-04   -0.68209E-05   203   0.390E-02    0.343E-02
RMM:   9    -0.938038389665E+02    0.47998E-05   -0.20780E-05   149   0.248E-02
  29 F= -.93803839E+02 E0= -.93803839E+02  d E =-.215791E-01  mag=     0.0000
       N       E                     dE             d eps       ncg     rms          rms(c)
DAV:   1    -0.933881404172E+02    0.41570E+00   -0.30374E+01   296   0.666E+01    0.239E+00
RMM:   2    -0.938180085343E+02   -0.42987E+00   -0.42959E+00   300   0.107E+01    0.133E+00
RMM:   3    -0.938244802878E+02   -0.64718E-02   -0.18028E-01   284   0.183E+00    0.805E-01
RMM:   4    -0.938217642818E+02    0.27160E-02   -0.80670E-03   302   0.391E-01    0.624E-01
RMM:   5    -0.938208696124E+02    0.89467E-03   -0.55732E-03   252   0.355E-01    0.498E-01
RMM:   6    -0.938199656824E+02    0.90393E-03   -0.50032E-03   261   0.355E-01    0.235E-01
RMM:   7    -0.938197970808E+02    0.16860E-03   -0.86912E-04   273   0.151E-01    0.709E-02
RMM:   8    -0.938197852717E+02    0.11809E-04   -0.14593E-04   252   0.568E-02    0.567E-02
RMM:   9    -0.938197720765E+02    0.13195E-04   -0.48053E-05   171   0.351E-02    0.373E-02
RMM:  10    -0.938197633309E+02    0.87456E-05   -0.24211E-05   148   0.272E-02
  30 F= -.93819763E+02 E0= -.93819763E+02  d E =-.375034E-01  mag=     0.0000
       N       E                     dE             d eps       ncg     rms          rms(c)
DAV:   1    -0.937431819233E+02    0.76590E-01   -0.55651E+00   296   0.285E+01    0.997E-01
RMM:   2    -0.938223375432E+02   -0.79156E-01   -0.79119E-01   299   0.455E+00    0.517E-01
RMM:   3    -0.938224596281E+02   -0.12208E-03   -0.32583E-02   282   0.787E-01    0.341E-01
RMM:   4    -0.938219957088E+02    0.46392E-03   -0.14754E-03   298   0.164E-01    0.267E-01
RMM:   5    -0.938218164599E+02    0.17925E-03   -0.10615E-03   252   0.155E-01    0.212E-01
RMM:   6    -0.938216564939E+02    0.15997E-03   -0.97023E-04   260   0.156E-01    0.975E-02
RMM:   7    -0.938216251924E+02    0.31301E-04   -0.14901E-04   260   0.631E-02    0.305E-02
RMM:   8    -0.938216221061E+02    0.30863E-05   -0.21496E-05   149   0.239E-02
  31 F= -.93821622E+02 E0= -.93821622E+02  d E =-.393622E-01  mag=    -0.0000
       N       E                     dE             d eps       ncg     rms          rms(c)
DAV:   1    -0.937341998004E+02    0.87425E-01   -0.71040E+00   296   0.321E+01    0.110E+00
RMM:   2    -0.938336089473E+02   -0.99409E-01   -0.99593E-01   299   0.519E+00    0.555E-01
RMM:   3    -0.938353009443E+02   -0.16920E-02   -0.46091E-02   281   0.919E-01    0.371E-01
RMM:   4    -0.938346960732E+02    0.60487E-03   -0.20067E-03   304   0.201E-01    0.293E-01
RMM:   5    -0.938345117612E+02    0.18431E-03   -0.94968E-04   257   0.149E-01    0.252E-01
RMM:   6    -0.938342366060E+02    0.27516E-03   -0.94946E-04   252   0.162E-01    0.891E-02
RMM:   7    -0.938342245897E+02    0.12016E-04   -0.18803E-04   263   0.711E-02    0.239E-02
RMM:   8    -0.938342248893E+02   -0.29963E-06   -0.18244E-05   151   0.224E-02
  32 F= -.93834225E+02 E0= -.93834225E+02  d E =-.126028E-01  mag=    -0.0000
       N       E                     dE             d eps       ncg     rms          rms(c)
DAV:   1    -0.929494011524E+02    0.88482E+00   -0.63881E+01   296   0.962E+01    0.347E+00
RMM:   2    -0.938518490820E+02   -0.90245E+00   -0.90500E+00   293   0.157E+01    0.197E+00
RMM:   3    -0.938710413531E+02   -0.19192E-01   -0.54686E-01   294   0.309E+00    0.118E+00
RMM:   4    -0.938648985463E+02    0.61428E-02   -0.15737E-02   312   0.560E-01    0.947E-01
RMM:   5    -0.938631491699E+02    0.17494E-02   -0.12793E-02   251   0.587E-01    0.825E-01
RMM:   6    -0.938598659839E+02    0.32832E-02   -0.97145E-03   260   0.536E-01    0.208E-01
RMM:   7    -0.938598944916E+02   -0.28508E-04   -0.11742E-03   291   0.170E-01    0.992E-02
RMM:   8    -0.938599230189E+02   -0.28527E-04   -0.29216E-04   265   0.774E-02    0.952E-02
RMM:   9    -0.938598932626E+02    0.29756E-04   -0.12962E-04   233   0.538E-02    0.504E-02
RMM:  10    -0.938598823228E+02    0.10940E-04   -0.41796E-05   171   0.379E-02    0.165E-02
RMM:  11    -0.938598815488E+02    0.77403E-06   -0.73404E-06   140   0.170E-02
  33 F= -.93859882E+02 E0= -.93859882E+02  d E =-.382594E-01  mag=    -0.0000
       N       E                     dE             d eps       ncg     rms          rms(c)
DAV:   1    -0.900928649365E+02    0.37670E+01   -0.25500E+02   296   0.191E+02    0.784E+00
RMM:   2    -0.938610336181E+02   -0.37682E+01   -0.37874E+01   293   0.320E+01    0.543E+00
RMM:   3    -0.938993462706E+02   -0.38313E-01   -0.22694E+00   311   0.652E+00    0.264E+00
RMM:   4    -0.938731456674E+02    0.26201E-01   -0.58252E-02   298   0.117E+00    0.204E+00
RMM:   5    -0.938618160156E+02    0.11330E-01   -0.35189E-02   254   0.100E+00    0.131E+00
RMM:   6    -0.938589465217E+02    0.28695E-02   -0.33512E-02   258   0.937E-01    0.829E-01
RMM:   7    -0.938563639318E+02    0.25826E-02   -0.10017E-02   268   0.510E-01    0.233E-01
RMM:   8    -0.938562866879E+02    0.77244E-04   -0.16233E-03   279   0.195E-01    0.141E-01
RMM:   9    -0.938562676374E+02    0.19051E-04   -0.38128E-04   262   0.985E-02    0.984E-02
RMM:  10    -0.938562415945E+02    0.26043E-04   -0.22724E-04   241   0.732E-02    0.591E-02
RMM:  11    -0.938562254456E+02    0.16149E-04   -0.28941E-05   162   0.296E-02    0.114E-02
RMM:  12    -0.938562251553E+02    0.29031E-06   -0.47163E-06   140   0.123E-02
  34 F= -.93856225E+02 E0= -.93856225E+02  d E =-.346030E-01  mag=     0.0000
       N       E                     dE             d eps       ncg     rms          rms(c)
DAV:   1    -0.927461532477E+02    0.11101E+01   -0.78354E+01   296   0.107E+02    0.379E+00
RMM:   2    -0.938540736529E+02   -0.11079E+01   -0.11091E+01   295   0.174E+01    0.218E+00
RMM:   3    -0.938823944369E+02   -0.28321E-01   -0.67362E-01   298   0.341E+00    0.139E+00
RMM:   4    -0.938743450213E+02    0.80494E-02   -0.21474E-02   293   0.702E-01    0.111E+00
RMM:   5    -0.938717054623E+02    0.26396E-02   -0.78435E-03   266   0.438E-01    0.954E-01
RMM:   6    -0.938672538467E+02    0.44516E-02   -0.12606E-02   247   0.601E-01    0.310E-01
RMM:   7    -0.938671674997E+02    0.86347E-04   -0.38240E-03   273   0.321E-01    0.183E-01
RMM:   8    -0.938670777457E+02    0.89754E-04   -0.71947E-04   280   0.126E-01    0.106E-01
RMM:   9    -0.938670463684E+02    0.31377E-04   -0.17548E-04   246   0.616E-02    0.624E-02
RMM:  10    -0.938670234670E+02    0.22901E-04   -0.74728E-05   232   0.453E-02    0.267E-02
RMM:  11    -0.938670227647E+02    0.70233E-06   -0.10630E-05   140   0.221E-02
  35 F= -.93867023E+02 E0= -.93867023E+02  d E =-.454007E-01  mag=    -0.0000
       N       E                     dE             d eps       ncg     rms          rms(c)
DAV:   1    -0.938336424146E+02    0.33381E-01   -0.29821E+00   296   0.208E+01    0.704E-01
RMM:   2    -0.938741267700E+02   -0.40484E-01   -0.40673E-01   304   0.333E+00    0.377E-01
RMM:   3    -0.938759734291E+02   -0.18467E-02   -0.17926E-02   280   0.553E-01    0.244E-01
RMM:   4    -0.938757222436E+02    0.25119E-03   -0.79247E-04   302   0.127E-01    0.195E-01
RMM:   5    -0.938755436460E+02    0.17860E-03   -0.33923E-04   248   0.989E-02    0.967E-02
RMM:   6    -0.938755329873E+02    0.10659E-04   -0.22559E-04   247   0.768E-02    0.473E-02
RMM:   7    -0.938755282912E+02    0.46961E-05   -0.59157E-05   191   0.393E-02
  36 F= -.93875528E+02 E0= -.93875528E+02  d E =-.850553E-02  mag=    -0.0000
       N       E                     dE             d eps       ncg     rms          rms(c)
DAV:   1    -0.935195200423E+02    0.35601E+00   -0.26826E+01   296   0.623E+01    0.218E+00
RMM:   2    -0.938902893444E+02   -0.37077E+00   -0.37303E+00   303   0.100E+01    0.126E+00
RMM:   3    -0.939030500817E+02   -0.12761E-01   -0.16472E-01   283   0.170E+00    0.746E-01
RMM:   4    -0.939008231009E+02    0.22270E-02   -0.73048E-03   306   0.389E-01    0.599E-01
RMM:   5    -0.938993629102E+02    0.14602E-02   -0.29196E-03   249   0.288E-01    0.314E-01
RMM:   6    -0.938993306120E+02    0.32298E-04   -0.26744E-03   252   0.263E-01    0.213E-01
RMM:   7    -0.938991363242E+02    0.19429E-03   -0.79909E-04   274   0.143E-01    0.732E-02
RMM:   8    -0.938991277421E+02    0.85821E-05   -0.95822E-05   244   0.477E-02
  37 F= -.93899128E+02 E0= -.93899128E+02  d E =-.321050E-01  mag=     0.0000
       N       E                     dE             d eps       ncg     rms          rms(c)
DAV:   1    -0.923954855183E+02    0.15037E+01   -0.10713E+02   296   0.124E+02    0.467E+00
RMM:   2    -0.939336102199E+02   -0.15381E+01   -0.15494E+01   294   0.203E+01    0.304E+00
RMM:   3    -0.939553776143E+02   -0.21767E-01   -0.91173E-01   295   0.396E+00    0.163E+00
RMM:   4    -0.939450922947E+02    0.10285E-01   -0.26160E-02   309   0.777E-01    0.134E+00
RMM:   5    -0.939393288194E+02    0.57635E-02   -0.16092E-02   248   0.692E-01    0.794E-01
RMM:   6    -0.939382069333E+02    0.11219E-02   -0.14209E-02   262   0.622E-01    0.519E-01
RMM:   7    -0.939370521700E+02    0.11548E-02   -0.40808E-03   271   0.317E-01    0.153E-01
RMM:   8    -0.939370278275E+02    0.24343E-04   -0.62182E-04   279   0.120E-01    0.780E-02
RMM:   9    -0.939370258023E+02    0.20252E-05   -0.14232E-04   238   0.570E-02    0.670E-02
RMM:  10    -0.939370105048E+02    0.15298E-04   -0.82446E-05   199   0.463E-02    0.333E-02
RMM:  11    -0.939370069002E+02    0.36046E-05   -0.11489E-05   140   0.222E-02
  38 F= -.93937007E+02 E0= -.93937007E+02  d E =-.699841E-01  mag=    -0.0000
       N       E                     dE             d eps       ncg     rms          rms(c)
DAV:   1    -0.875020523401E+02    0.64350E+01   -0.42652E+02   296   0.247E+02    0.111E+01
RMM:   2    -0.939505130547E+02   -0.64485E+01   -0.65167E+01   296   0.422E+01    0.853E+00
RMM:   3    -0.940387611153E+02   -0.88248E-01   -0.38573E+00   305   0.844E+00    0.397E+00
RMM:   4    -0.939970189390E+02    0.41742E-01   -0.11836E-01   302   0.178E+00    0.311E+00
RMM:   5    -0.939814155587E+02    0.15603E-01   -0.42012E-02   256   0.111E+00    0.212E+00
RMM:   6    -0.939753013940E+02    0.61142E-02   -0.65929E-02   253   0.126E+00    0.115E+00
RMM:   7    -0.939706272629E+02    0.46741E-02   -0.20090E-02   269   0.706E-01    0.455E-01
RMM:   8    -0.939701689800E+02    0.45828E-03   -0.42790E-03   270   0.312E-01    0.172E-01
RMM:   9    -0.939701467975E+02    0.22183E-04   -0.60739E-04   276   0.117E-01    0.114E-01
RMM:  10    -0.939701779593E+02   -0.31162E-04   -0.42524E-04   261   0.963E-02    0.107E-01
RMM:  11    -0.939701293639E+02    0.48595E-04   -0.11534E-04   226   0.535E-02    0.176E-02
RMM:  12    -0.939701286709E+02    0.69298E-06   -0.14518E-05   147   0.208E-02
  39 F= -.93970129E+02 E0= -.93970129E+02  d E =-.103106E+00  mag=    -0.0000
       N       E                     dE             d eps       ncg     rms          rms(c)
DAV:   1    -0.938260123210E+02    0.14412E+00   -0.57865E+00   328   0.402E+01    0.150E+00
RMM:   2    -0.939909308760E+02   -0.16492E+00   -0.16502E+00   291   0.592E+00    0.791E-01
RMM:   3    -0.939845235540E+02    0.64073E-02   -0.68787E-02   281   0.116E+00    0.500E-01
RMM:   4    -0.939840156398E+02    0.50791E-03   -0.39508E-03   301   0.275E-01    0.404E-01
RMM:   5    -0.939837303460E+02    0.28529E-03   -0.14840E-03   263   0.190E-01    0.329E-01
RMM:   6    -0.939833805998E+02    0.34975E-03   -0.12905E-03   255   0.193E-01    0.105E-01
RMM:   7    -0.939833775413E+02    0.30585E-05   -0.31437E-04   279   0.927E-02    0.591E-02
RMM:   8    -0.939833644004E+02    0.13141E-04   -0.58456E-05   189   0.377E-02    0.333E-02
RMM:   9    -0.939833611536E+02    0.32468E-05   -0.16798E-05   145   0.231E-02
  40 F= -.93983361E+02 E0= -.93983361E+02  d E =-.132325E-01  mag=     0.0000
       N       E                     dE             d eps       ncg     rms          rms(c)
