 vasp.5.4.4.18Apr17-6-g9f103f2a35 (build Nov 08 2022 17:27:33) complex          
  
 executed on             LinuxIFC date 2022.11.22  17:13:44
 running on   16 total cores
 distrk:  each k-point on   16 cores,    1 groups
 distr:  one band on NCORES_PER_BAND=   4 cores,    4 groups


--------------------------------------------------------------------------------------------------------


 INCAR:
 POTCAR:    PAW_PBE Mn_pv 02Aug2007               
 POTCAR:    PAW_PBE O 08Apr2002                   
 POTCAR:    PAW_PBE Mn_pv 02Aug2007               
   VRHFIN =Mn: 3p4s3d                                                           
   LEXCH  = PE                                                                  
   EATOM  =  2025.2664 eV,  148.8529 Ry                                         
                                                                                
   TITEL  = PAW_PBE Mn_pv 02Aug2007                                             
   LULTRA =        F    use ultrasoft PP ?                                      
   IUNSCR =        1    unscreen: 0-lin 1-nonlin 2-no                           
   RPACOR =    2.080    partial core radius                                     
   POMASS =   54.938; ZVAL   =   13.000    mass and valenz                      
   RCORE  =    2.300    outmost cutoff radius                                   
   RWIGS  =    2.500; RWIGS  =    1.323    wigner-seitz radius (au A)           
   ENMAX  =  269.864; ENMIN  =  202.398 eV                                      
   ICORE  =        3    local potential                                         
   LCOR   =        T    correct aug charges                                     
   LPAW   =        T    paw PP                                                  
   EAUG   =  569.085                                                            
   DEXC   =    0.000                                                            
   RMAX   =    2.343    core radius for proj-oper                               
   RAUG   =    1.300    factor for augmentation sphere                          
   RDEP   =    2.338    radius for radial grids                                 
   RDEPT  =    1.798    core radius for aug-charge                              
                                                                                
   Atomic configuration                                                         
    8 entries                                                                   
     n  l   j            E        occ.                                          
     1  0  0.50     -6424.8287   2.0000                                         
     2  0  0.50      -739.1154   2.0000                                         
     2  1  1.50      -625.3949   6.0000                                         
     3  0  0.50       -81.6100   2.0000                                         
     3  1  1.50       -50.4667   6.0000                                         
     3  2  2.50        -3.3745   6.0000                                         
     4  0  0.50        -4.1331   1.0000                                         
     4  3  2.50        -1.3606   0.0000                                         
   Description                                                                  
     l       E           TYP  RCUT    TYP  RCUT                                 
     1    -50.4666628     23  2.000                                             
     1     -1.3605826     23  2.000                                             
     2     -3.3744729     23  2.300                                             
     2     -4.7350555     23  2.300                                             
     0     -4.1331431     23  2.300                                             
     0      7.6656591     23  2.300                                             
     3      9.5240782     23  2.300                                             
  local pseudopotential read in
  partial core-charges read in
  partial kinetic energy density read in
  atomic valenz-charges read in
  non local Contribution for L=           1  read in
    real space projection operators read in
  non local Contribution for L=           1  read in
    real space projection operators read in
  non local Contribution for L=           2  read in
    real space projection operators read in
  non local Contribution for L=           2  read in
    real space projection operators read in
  non local Contribution for L=           0  read in
    real space projection operators read in
  non local Contribution for L=           0  read in
    real space projection operators read in
    PAW grid and wavefunctions read in
 
   number of l-projection  operators is LMAX  =           6
   number of lm-projection operators is LMMAX =          18
 
 POTCAR:    PAW_PBE O 08Apr2002                   
   VRHFIN =O: s2p4                                                              
   LEXCH  = PE                                                                  
   EATOM  =   432.3788 eV,   31.7789 Ry                                         
                                                                                
   TITEL  = PAW_PBE O 08Apr2002                                                 
   LULTRA =        F    use ultrasoft PP ?                                      
   IUNSCR =        1    unscreen: 0-lin 1-nonlin 2-no                           
   RPACOR =    1.200    partial core radius                                     
   POMASS =   16.000; ZVAL   =    6.000    mass and valenz                      
   RCORE  =    1.520    outmost cutoff radius                                   
   RWIGS  =    1.550; RWIGS  =    0.820    wigner-seitz radius (au A)           
   ENMAX  =  400.000; ENMIN  =  300.000 eV                                      
   ICORE  =        2    local potential                                         
   LCOR   =        T    correct aug charges                                     
   LPAW   =        T    paw PP                                                  
   EAUG   =  605.392                                                            
   DEXC   =    0.000                                                            
   RMAX   =    1.553    core radius for proj-oper                               
   RAUG   =    1.300    factor for augmentation sphere                          
   RDEP   =    1.550    radius for radial grids                                 
   RDEPT  =    1.329    core radius for aug-charge                              
                                                                                
   Atomic configuration                                                         
    4 entries                                                                   
     n  l   j            E        occ.                                          
     1  0  0.50      -514.6923   2.0000                                         
     2  0  0.50       -23.9615   2.0000                                         
     2  1  0.50        -9.0305   4.0000                                         
     3  2  1.50        -9.5241   0.0000                                         
   Description                                                                  
     l       E           TYP  RCUT    TYP  RCUT                                 
     0    -23.9615318     23  1.200                                             
     0     -9.5240782     23  1.200                                             
     1     -9.0304911     23  1.520                                             
     1      8.1634956     23  1.520                                             
     2     -9.5240782      7  1.500                                             
  local pseudopotential read in
  partial core-charges read in
  partial kinetic energy density read in
  kinetic energy density of atom read in
  atomic valenz-charges read in
  non local Contribution for L=           0  read in
    real space projection operators read in
  non local Contribution for L=           0  read in
    real space projection operators read in
  non local Contribution for L=           1  read in
    real space projection operators read in
  non local Contribution for L=           1  read in
    real space projection operators read in
    PAW grid and wavefunctions read in
 
   number of l-projection  operators is LMAX  =           4
   number of lm-projection operators is LMMAX =           8
 
 Optimization of the real space projectors (new method)

 maximal supplied QI-value         = 16.25
 optimisation between [QCUT,QGAM] = [ 10.24, 20.48] = [ 29.35,117.42] Ry 
 Optimized for a Real-space Cutoff    1.46 Angstroem

   l    n(q)    QCUT    max X(q) W(low)/X(q) W(high)/X(q)  e(spline) 
   1      8    10.239     3.658    0.66E-04    0.10E-03    0.11E-06
   1      8    10.239     5.612    0.11E-03    0.22E-03    0.22E-06
   2      8    10.239    55.373    0.13E-03    0.13E-03    0.98E-07
   2      8    10.239    50.863    0.13E-03    0.13E-03    0.10E-06
   0      9    10.239    79.536    0.48E-04    0.67E-04    0.69E-07
   0      9    10.239    38.668    0.40E-04    0.61E-04    0.64E-07
 Optimization of the real space projectors (new method)

 maximal supplied QI-value         = 24.76
 optimisation between [QCUT,QGAM] = [ 10.15, 20.30] = [ 28.85,115.39] Ry 
 Optimized for a Real-space Cutoff    1.51 Angstroem

   l    n(q)    QCUT    max X(q) W(low)/X(q) W(high)/X(q)  e(spline) 
   0      9    10.150    20.381    0.17E-03    0.18E-03    0.41E-06
   0      9    10.150    15.268    0.18E-03    0.20E-03    0.43E-06
   1      9    10.150     5.964    0.16E-03    0.20E-03    0.36E-06
   1      9    10.150     5.382    0.13E-03    0.16E-03    0.33E-06
  PAW_PBE Mn_pv 02Aug2007               :
 energy of atom  1       EATOM=-2025.2664
 kinetic energy error for atom=    0.0284 (will be added to EATOM!!)
  PAW_PBE O 08Apr2002                   :
 energy of atom  2       EATOM= -432.3788
 kinetic energy error for atom=    0.1156 (will be added to EATOM!!)
 
 
 POSCAR: Mn4 O8                                  
  positions in direct lattice
  No initial velocities read in
 exchange correlation table for  LEXCH =        8
   RHO(1)=    0.500       N(1)  =     2000
   RHO(2)=  100.500       N(2)  =     4000

 VTST: version 3.2, (02/03/18)

 CHAIN: initializing optimizer
 
 OPT: Using VASP Conjugate-Gradient optimizer
 CHAIN: Read ICHAIN            0
 
 POSCAR: Mn4 O8                                  
  positions in direct lattice
  No initial velocities read in
 


--------------------------------------------------------------------------------------------------------


 ion  position               nearest neighbor table
   1  0.250  0.021  0.865-  12 1.91  12 1.91  10 1.92   6 1.94   6 1.94   7 1.94   2 2.94   2 2.94

   2  0.750  0.979  0.135-   9 1.91   9 1.91  11 1.92   7 1.94   7 1.94   6 1.94   1 2.94   1 2.94

   3  0.750  0.521  0.635-  10 1.91  10 1.91  12 1.92   5 1.94   5 1.94   8 1.94   4 2.94   4 2.94

   4  0.250  0.479  0.365-  11 1.91  11 1.91   9 1.92   8 1.94   8 1.94   5 1.94   3 2.94   3 2.94

   5  0.250  0.712  0.537-   3 1.94   3 1.94   4 1.94
   6  0.750  0.212  0.963-   1 1.94   1 1.94   2 1.94
   7  0.250  0.788  0.037-   2 1.94   2 1.94   1 1.94
   8  0.750  0.288  0.463-   4 1.94   4 1.94   3 1.94
   9  0.250  0.191  0.216-   2 1.91   2 1.91   4 1.92
  10  0.250  0.309  0.716-   3 1.91   3 1.91   1 1.92
  11  0.750  0.691  0.284-   4 1.91   4 1.91   2 1.92
  12  0.750  0.809  0.784-   1 1.91   1 1.91   3 1.92
 

IMPORTANT INFORMATION: All symmetrisations will be switched off!
NOSYMM: (Re-)initialisation of all symmetry stuff for point group C_1.

 
 
 KPOINTS: Default gamma                           

Automatic generation of k-mesh.
Space group operators:
 irot       det(A)        alpha          n_x          n_y          n_z        tau_x        tau_y        tau_z
    1     1.000000     0.000000     1.000000     0.000000     0.000000     0.000000     0.000000     0.000000
 
 Subroutine IBZKPT returns following result:
 ===========================================
 
 Found      1 irreducible k-points:
 
 Following reciprocal coordinates:
            Coordinates               Weight
  0.000000  0.000000  0.000000      1.000000
 
 Following cartesian coordinates:
            Coordinates               Weight
  0.000000  0.000000  0.000000      1.000000
 


--------------------------------------------------------------------------------------------------------




 Dimension of arrays:
   k-points           NKPTS =      1   k-points in BZ     NKDIM =      1   number of bands    NBANDS=     60
   number of dos      NEDOS =    301   number of ions     NIONS =     12
   non local maximal  LDIM  =      6   non local SUM 2l+1 LMDIM =     18
   total plane-waves  NPLWV =  38400
   max r-space proj   IRMAX =   4431   max aug-charges    IRDMAX=   9443
   dimension x,y,z NGX =    20 NGY =   30 NGZ =   64
   dimension x,y,z NGXF=    40 NGYF=   60 NGZF=  128
   support grid    NGXF=    40 NGYF=   60 NGZF=  128
   ions per type =               4   8
   NGX,Y,Z   is equivalent  to a cutoff of  11.40, 10.89, 11.28 a.u.
   NGXF,Y,Z  is equivalent  to a cutoff of  22.80, 21.77, 22.56 a.u.

 SYSTEM =  unknown system                          
 POSCAR =  Mn4 O8                                  

 Startparameter for this run:
   NWRITE =      2    write-flag & timer
   PREC   = accura    normal or accurate (medium, high low for compatibility)
   ISTART =      0    job   : 0-new  1-cont  2-samecut
   ICHARG =      2    charge: 1-file 2-atom 10-const
   ISPIN  =      2    spin polarized calculation?
   LNONCOLLINEAR =      F non collinear calculations
   LSORBIT =      F    spin-orbit coupling
   INIWAV =      1    electr: 0-lowe 1-rand  2-diag
   LASPH  =      T    aspherical Exc in radial PAW
   METAGGA=      F    non-selfconsistent MetaGGA calc.

 Electronic Relaxation 1
   ENCUT  =  400.0 eV  29.40 Ry    5.42 a.u.   4.76  7.47 15.39*2*pi/ulx,y,z
   ENINI  =  400.0     initial cutoff
   ENAUG  =  800.0 eV  augmentation charge cutoff
   NELM   =     40;   NELMIN=  2; NELMDL= -5     # of ELM steps 
   EDIFF  = 0.1E-04   stopping-criterion for ELM
   LREAL  =      T    real-space projection
   NLSPLINE    = F    spline interpolate recip. space projectors
   LCOMPAT=      F    compatible to vasp.4.4
   GGA_COMPAT  = T    GGA compatible to vasp.4.4-vasp.4.6
   LMAXPAW     = -100 max onsite density
   LMAXMIX     =    4 max onsite mixed and CHGCAR
   VOSKOWN=      0    Vosko Wilk Nusair interpolation
   ROPT   =   -0.00025  -0.00025
 Ionic relaxation
   EDIFFG = -.3E-01   stopping-criterion for IOM
   NSW    =    199    number of steps for IOM
   NBLOCK =      1;   KBLOCK =    199    inner block; outer block 
   IBRION =      2    ionic relax: 0-MD 1-quasi-New 2-CG
   NFREE  =      1    steps in history (QN), initial steepest desc. (CG)
   ISIF   =      2    stress and relaxation
   IWAVPR =     11    prediction:  0-non 1-charg 2-wave 3-comb
   ISYM   =      0    0-nonsym 1-usesym 2-fastsym
   LCORR  =      T    Harris-Foulkes like correction to forces

   POTIM  = 0.5000    time-step for ionic-motion
   TEIN   =    0.0    initial temperature
   TEBEG  =    0.0;   TEEND  =   0.0 temperature during run
   SMASS  =  -3.00    Nose mass-parameter (am)
   estimated Nose-frequenzy (Omega)   =  0.10E-29 period in steps =****** mass=  -0.194E-27a.u.
   SCALEE = 1.0000    scale energy and forces
   NPACO  =    256;   APACO  = 16.0  distance and # of slots for P.C.
   PSTRESS=    0.0 pullay stress

  Mass of Ions in am
   POMASS =  54.94 16.00
  Ionic Valenz
   ZVAL   =  13.00  6.00
  Atomic Wigner-Seitz radii
   RWIGS  =  -1.00 -1.00
  virtual crystal weights 
   VCA    =   1.00  1.00
   NELECT =     100.0000    total number of electrons
   NUPDOWN=      -1.0000    fix difference up-down

 DOS related values:
   EMIN   =  10.00;   EMAX   =-10.00  energy-range for DOS
   EFERMI =   0.00
   ISMEAR =     0;   SIGMA  =   0.01  broadening in eV -4-tet -1-fermi 0-gaus

 Electronic relaxation 2 (details)
   IALGO  =     68    algorithm
   LDIAG  =      T    sub-space diagonalisation (order eigenvalues)
   LSUBROT=      F    optimize rotation matrix (better conditioning)
   TURBO    =      0    0=normal 1=particle mesh
   IRESTART =      0    0=no restart 2=restart with 2 vectors
   NREBOOT  =      0    no. of reboots
   NMIN     =      0    reboot dimension
   EREF     =   0.00    reference energy to select bands
   IMIX   =      4    mixing-type and parameters
     AMIX     =   0.40;   BMIX     =  1.00
     AMIX_MAG =   1.60;   BMIX_MAG =  1.00
     AMIN     =   0.10
     WC   =   100.;   INIMIX=   1;  MIXPRE=   1;  MAXMIX= -45

 Intra band minimization:
   WEIMIN = 0.0010     energy-eigenvalue tresh-hold
   EBREAK =  0.42E-07  absolut break condition
   DEPER  =   0.30     relativ break condition  

   TIME   =   0.40     timestep for ELM

  volume/ion in A,a.u.               =      10.50        70.88
  Fermi-wavevector in a.u.,A,eV,Ry     =   1.515557  2.863987 31.251390  2.296912
  Thomas-Fermi vector in A             =   2.625065
 
 Write flags
   LWAVE        =      T    write WAVECAR
   LDOWNSAMPLE  =      F    k-point downsampling of WAVECAR
   LCHARG       =      T    write CHGCAR
   LVTOT        =      F    write LOCPOT, total local potential
   LVHAR        =      F    write LOCPOT, Hartree potential only
   LELF         =      F    write electronic localiz. function (ELF)
   LORBIT       =     11    0 simple, 1 ext, 2 COOP (PROOUT), +10 PAW based schemes


 Dipole corrections
   LMONO  =      F    monopole corrections only (constant potential shift)
   LDIPOL =      F    correct potential (dipole corrections)
   IDIPOL =      0    1-x, 2-y, 3-z, 4-all directions 
   EPSILON=  1.0000000 bulk dielectric constant

 Exchange correlation treatment:
   GGA     =    PE    GGA type
   LEXCH   =     8    internal setting for exchange type
   VOSKOWN=      0    Vosko Wilk Nusair interpolation
   LHFCALC =     F    Hartree Fock is set to
   LHFONE  =     F    Hartree Fock one center treatment
   AEXX    =    0.0000 exact exchange contribution

 Linear response parameters
   LEPSILON=     F    determine dielectric tensor
   LRPA    =     F    only Hartree local field effects (RPA)
   LNABLA  =     F    use nabla operator in PAW spheres
   LVEL    =     F    velocity operator in full k-point grid
   LINTERFAST=   F  fast interpolation
   KINTER  =     0    interpolate to denser k-point grid
   CSHIFT  =0.1000    complex shift for real part using Kramers Kronig
   OMEGAMAX=  -1.0    maximum frequency
   DEG_THRESHOLD= 0.2000000E-02 threshold for treating states as degnerate
   RTIME   =   -0.100 relaxation time in fs
  (WPLASMAI=    0.000 imaginary part of plasma frequency in eV, 0.658/RTIME)
   DFIELD  = 0.0000000 0.0000000 0.0000000 field for delta impulse in time
 
 Orbital magnetization related:
   ORBITALMAG=     F  switch on orbital magnetization
   LCHIMAG   =     F  perturbation theory with respect to B field
   DQ        =  0.001000  dq finite difference perturbation B field
   LLRAUG    =     F  two centre corrections for induced B field



--------------------------------------------------------------------------------------------------------


 conjugate gradient relaxation of ions
 charge density and potential will be updated during run
 spin polarized calculation
 RMM-DIIS sequential band-by-band and
  variant of blocked Davidson during initial phase
 perform sub-space diagonalisation
    before iterative eigenvector-optimisation
 modified Broyden-mixing scheme, WC =      100.0
 initial mixing is a Kerker type mixing with AMIX =  0.4000 and BMIX =      1.0000
 Hartree-type preconditioning will be used
 using additional bands           10
 real space projection scheme for non local part
 use partial core corrections
 calculate Harris-corrections to forces 
   (improved forces if not selfconsistent)
 use gradient corrections 
 use of overlap-Matrix (Vanderbilt PP)
 Gauss-broadening in eV      SIGMA  =   0.01


--------------------------------------------------------------------------------------------------------


  energy-cutoff  :      400.00
  volume of cell :      126.04
      direct lattice vectors                 reciprocal lattice vectors
     2.916331000  0.000000000  0.000000000     0.342896605  0.000000075 -0.000000073
    -0.000001000  4.580966000  0.000145000     0.000000000  0.218294570 -0.000006941
     0.000002000  0.000300000  9.434393000     0.000000000 -0.000003355  0.105995161

  length of vectors
     2.916331000  4.580966002  9.434393005     0.342896605  0.218294570  0.105995161


 
 k-points in units of 2pi/SCALE and weight: Default gamma                           
   0.00000000  0.00000000  0.00000000       1.000
 
 k-points in reciprocal lattice and weights: Default gamma                           
   0.00000000  0.00000000  0.00000000       1.000
 
 position of ions in fractional coordinates (direct lattice) 
   0.25000000  0.02126500  0.86501400
   0.74999900  0.97874100  0.13499200
   0.75000000  0.52131000  0.63496800
   0.25000100  0.47868900  0.36502400
   0.25000000  0.71244700  0.53693000
   0.75000000  0.21232300  0.96305200
   0.25000000  0.78767800  0.03695300
   0.75000000  0.28755100  0.46306600
   0.25000000  0.19132200  0.21631000
   0.25000000  0.30854000  0.71624800
   0.75000000  0.69145800  0.28375200
   0.75000000  0.80867700  0.78369200
 
 position of ions in cartesian coordinates  (Angst):
   0.72908446  0.09767375  8.16088511
   2.18724462  4.48361974  1.27370950
   2.18724900  2.38829388  5.99061324
   0.72908592  2.19296754  3.44384928
   0.72908311  3.26385656  5.06571194
   2.18724996  0.97293336  9.08584183
   0.72908204  3.60833722  0.34874334
   2.18724889  1.31740027  4.36878832
   0.72908299  0.87650447  2.04078129
   0.72908387  1.41362612  6.75740986
   2.18724813  3.16763071  2.67712814
   2.18724901  3.70475695  7.39377558
 


--------------------------------------------------------------------------------------------------------


 k-point  1 :   0.0000 0.0000 0.0000  plane waves:    2297

 maximum and minimum number of plane-waves per node :       576      573

 maximum number of plane-waves:      2297
 maximum index in each direction: 
   IXMAX=    4   IYMAX=    7   IZMAX=   15
   IXMIN=   -4   IYMIN=   -7   IZMIN=  -15


 real space projection operators:
  total allocation   :       4311.56 KBytes
  max/ min on nodes  :       1082.62       1073.16


 parallel 3D FFT for wavefunctions:
    minimum data exchange during FFTs selected (reduces bandwidth)
 parallel 3D FFT for charge:
    minimum data exchange during FFTs selected (reduces bandwidth)


 total amount of memory used by VASP MPI-rank0    36297. kBytes
=======================================================================

   base      :      30000. kBytes
   nonlr-proj:       2229. kBytes
   fftplans  :       1043. kBytes
   grid      :       2639. kBytes
   one-center:         93. kBytes
   wavefun   :        293. kBytes
 
     INWAV:  cpu time    0.0000: real time    0.0002
 Broyden mixing: mesh for mixing (old mesh)
   NGX =  9   NGY = 15   NGZ = 31
  (NGX  = 40   NGY  = 60   NGZ  =128)
  gives a total of   4185 points

 initial charge density was supplied:
 charge density of overlapping atoms calculated
 number of electron     100.0000000 magnetization       0.0000000
 keeping initial charge density in first step


--------------------------------------------------------------------------------------------------------


 Maximum index for non-local projection operator         1072
 Maximum index for augmentation-charges          717 (set IRDMAX)


--------------------------------------------------------------------------------------------------------


 First call to EWALD:  gamma=   0.354
 Maximum number of real-space cells 4x 3x 2
 Maximum number of reciprocal cells 2x 3x 5

    FEWALD:  cpu time    0.0023: real time    0.0023


--------------------------------------- Iteration      1(   1)  ---------------------------------------


    POTLOK:  cpu time    0.0338: real time    0.0409
    SETDIJ:  cpu time    0.5747: real time    0.5787
     EDDAV:  cpu time    0.1247: real time    0.1317
       DOS:  cpu time    0.0002: real time    0.0002
    --------------------------------------------
      LOOP:  cpu time    0.7335: real time    0.7515

 eigenvalue-minimisations  :   240
 total energy-change (2. order) : 0.1306511E+04  (-0.4811701E+04)
 number of electron     100.0000000 magnetization       0.0000000
 augmentation part      100.0000000 magnetization       0.0000000

 Free energy of the ion-electron system (eV)
  ---------------------------------------------------
  alpha Z        PSCENC =       441.37612112
  Ewald energy   TEWEN  =     -7485.64291034
  -Hartree energ DENC   =     -3708.68415669
  -exchange      EXHF   =         0.00000000
  -V(xc)+E(xc)   XCENC  =       504.27051180
  PAW double counting   =      9348.48672290    -9564.88662345
  entropy T*S    EENTRO =        -0.00000000
  eigenvalues    EBANDS =       212.53419471
  atomic energy  EATOM  =     11559.05757976
  Solvation  Ediel_sol  =         0.00000000
  ---------------------------------------------------
  free energy    TOTEN  =      1306.51143980 eV

  energy without entropy =     1306.51143980  energy(sigma->0) =     1306.51143980


--------------------------------------------------------------------------------------------------------




--------------------------------------- Iteration      1(   2)  ---------------------------------------


     EDDAV:  cpu time    0.1269: real time    0.1280
       DOS:  cpu time    0.0001: real time    0.0001
    --------------------------------------------
      LOOP:  cpu time    0.1270: real time    0.1281

 eigenvalue-minimisations  :   256
 total energy-change (2. order) :-0.1225880E+04  (-0.1153890E+04)
 number of electron     100.0000000 magnetization       0.0000000
 augmentation part      100.0000000 magnetization       0.0000000

 Free energy of the ion-electron system (eV)
  ---------------------------------------------------
  alpha Z        PSCENC =       441.37612112
  Ewald energy   TEWEN  =     -7485.64291034
  -Hartree energ DENC   =     -3708.68415669
  -exchange      EXHF   =         0.00000000
  -V(xc)+E(xc)   XCENC  =       504.27051180
  PAW double counting   =      9348.48672290    -9564.88662345
  entropy T*S    EENTRO =        -0.00000000
  eigenvalues    EBANDS =     -1013.34548078
  atomic energy  EATOM  =     11559.05757976
  Solvation  Ediel_sol  =         0.00000000
  ---------------------------------------------------
  free energy    TOTEN  =        80.63176431 eV

  energy without entropy =       80.63176431  energy(sigma->0) =       80.63176431


--------------------------------------------------------------------------------------------------------




--------------------------------------- Iteration      1(   3)  ---------------------------------------


     EDDAV:  cpu time    0.1210: real time    0.1212
       DOS:  cpu time    0.0002: real time    0.0002
    --------------------------------------------
      LOOP:  cpu time    0.1211: real time    0.1214

 eigenvalue-minimisations  :   304
 total energy-change (2. order) :-0.1915732E+03  (-0.1839312E+03)
 number of electron     100.0000000 magnetization       0.0000000
 augmentation part      100.0000000 magnetization       0.0000000

 Free energy of the ion-electron system (eV)
  ---------------------------------------------------
  alpha Z        PSCENC =       441.37612112
  Ewald energy   TEWEN  =     -7485.64291034
  -Hartree energ DENC   =     -3708.68415669
  -exchange      EXHF   =         0.00000000
  -V(xc)+E(xc)   XCENC  =       504.27051180
  PAW double counting   =      9348.48672290    -9564.88662345
  entropy T*S    EENTRO =        -0.00000000
  eigenvalues    EBANDS =     -1204.91869321
  atomic energy  EATOM  =     11559.05757976
  Solvation  Ediel_sol  =         0.00000000
  ---------------------------------------------------
  free energy    TOTEN  =      -110.94144811 eV

  energy without entropy =     -110.94144811  energy(sigma->0) =     -110.94144811


--------------------------------------------------------------------------------------------------------




--------------------------------------- Iteration      1(   4)  ---------------------------------------


     EDDAV:  cpu time    0.1020: real time    0.1023
       DOS:  cpu time    0.0001: real time    0.0001
    --------------------------------------------
      LOOP:  cpu time    0.1021: real time    0.1024

 eigenvalue-minimisations  :   272
 total energy-change (2. order) :-0.1007550E+02  (-0.1000281E+02)
 number of electron     100.0000000 magnetization       0.0000000
 augmentation part      100.0000000 magnetization       0.0000000

 Free energy of the ion-electron system (eV)
  ---------------------------------------------------
  alpha Z        PSCENC =       441.37612112
  Ewald energy   TEWEN  =     -7485.64291034
  -Hartree energ DENC   =     -3708.68415669
  -exchange      EXHF   =         0.00000000
  -V(xc)+E(xc)   XCENC  =       504.27051180
  PAW double counting   =      9348.48672290    -9564.88662345
  entropy T*S    EENTRO =        -0.00000000
  eigenvalues    EBANDS =     -1214.99419012
  atomic energy  EATOM  =     11559.05757976
  Solvation  Ediel_sol  =         0.00000000
  ---------------------------------------------------
  free energy    TOTEN  =      -121.01694502 eV

  energy without entropy =     -121.01694502  energy(sigma->0) =     -121.01694502


--------------------------------------------------------------------------------------------------------




--------------------------------------- Iteration      1(   5)  ---------------------------------------


     EDDAV:  cpu time    0.0923: real time    0.0924
       DOS:  cpu time    0.0001: real time    0.0001
    CHARGE:  cpu time    0.0084: real time    0.0084
    MIXING:  cpu time    0.0010: real time    0.0010
    --------------------------------------------
      LOOP:  cpu time    0.1018: real time    0.1020

 eigenvalue-minimisations  :   276
 total energy-change (2. order) :-0.2294071E+00  (-0.2287672E+00)
 number of electron     100.0000007 magnetization      -0.0000000
 augmentation part       31.4256953 magnetization      -0.0014536

 Broyden mixing:
  rms(total) = 0.64158E+01    rms(broyden)= 0.64102E+01
  rms(prec ) = 0.74580E+01
  weight for this iteration     100.00

 Free energy of the ion-electron system (eV)
  ---------------------------------------------------
  alpha Z        PSCENC =       441.37612112
  Ewald energy   TEWEN  =     -7485.64291034
  -Hartree energ DENC   =     -3708.68415669
  -exchange      EXHF   =         0.00000000
  -V(xc)+E(xc)   XCENC  =       504.27051180
  PAW double counting   =      9348.48672290    -9564.88662345
  entropy T*S    EENTRO =        -0.00000000
  eigenvalues    EBANDS =     -1215.22359722
  atomic energy  EATOM  =     11559.05757976
  Solvation  Ediel_sol  =         0.00000000
  ---------------------------------------------------
  free energy    TOTEN  =      -121.24635212 eV

  energy without entropy =     -121.24635212  energy(sigma->0) =     -121.24635212


--------------------------------------------------------------------------------------------------------




--------------------------------------- Iteration      1(   6)  ---------------------------------------


    POTLOK:  cpu time    0.0227: real time    0.0234
    SETDIJ:  cpu time    0.3409: real time    0.3409
    EDDIAG:  cpu time    0.0141: real time    0.0141
  RMM-DIIS:  cpu time    0.0564: real time    0.0564
    ORTHCH:  cpu time    0.0025: real time    0.0025
       DOS:  cpu time    0.0001: real time    0.0001
    CHARGE:  cpu time    0.0061: real time    0.0061
    MIXING:  cpu time    0.0026: real time    0.0026
    --------------------------------------------
      LOOP:  cpu time    0.4455: real time    0.4461

 eigenvalue-minimisations  :   306
 total energy-change (2. order) :-0.7154282E+01  (-0.5120375E+02)
 number of electron     100.0000049 magnetization       0.0000004
 augmentation part       40.5833914 magnetization      -0.0145646

 Broyden mixing:
  rms(total) = 0.80027E+01    rms(broyden)= 0.79982E+01
  rms(prec ) = 0.10107E+02
  weight for this iteration     100.00

 eigenvalues of (default mixing * dielectric matrix)
  average eigenvalue GAMMA=   0.4303
  0.4303

 Free energy of the ion-electron system (eV)
  ---------------------------------------------------
  alpha Z        PSCENC =       441.37612112
  Ewald energy   TEWEN  =     -7485.64291034
  -Hartree energ DENC   =     -3537.86459830
  -exchange      EXHF   =         0.00000000
  -V(xc)+E(xc)   XCENC  =       498.58240811
  PAW double counting   =     10082.19409270   -10293.24011836
  entropy T*S    EENTRO =        -0.00000007
  eigenvalues    EBANDS =     -1392.86320841
  atomic energy  EATOM  =     11559.05757976
  Solvation  Ediel_sol  =         0.00000000
  ---------------------------------------------------
  free energy    TOTEN  =      -128.40063379 eV

  energy without entropy =     -128.40063371  energy(sigma->0) =     -128.40063375


--------------------------------------------------------------------------------------------------------




--------------------------------------- Iteration      1(   7)  ---------------------------------------


    POTLOK:  cpu time    0.0214: real time    0.0216
    SETDIJ:  cpu time    0.3162: real time    0.3162
    EDDIAG:  cpu time    0.0145: real time    0.0145
  RMM-DIIS:  cpu time    0.0467: real time    0.0467
    ORTHCH:  cpu time    0.0025: real time    0.0025
       DOS:  cpu time    0.0001: real time    0.0001
    CHARGE:  cpu time    0.0068: real time    0.0068
    MIXING:  cpu time    0.0011: real time    0.0011
    --------------------------------------------
      LOOP:  cpu time    0.4093: real time    0.4095

 eigenvalue-minimisations  :   270
 total energy-change (2. order) : 0.3311713E+02  (-0.2212311E+02)
 number of electron     100.0000017 magnetization       0.0000004
 augmentation part       32.4096395 magnetization      -0.0227807

 Broyden mixing:
  rms(total) = 0.24184E+01    rms(broyden)= 0.24097E+01
  rms(prec ) = 0.28239E+01
  weight for this iteration     100.00

 eigenvalues of (default mixing * dielectric matrix)
  average eigenvalue GAMMA=   0.5863
  0.8412  0.3313

 Free energy of the ion-electron system (eV)
  ---------------------------------------------------
  alpha Z        PSCENC =       441.37612112
  Ewald energy   TEWEN  =     -7485.64291034
  -Hartree energ DENC   =     -3691.05731753
  -exchange      EXHF   =         0.00000000
  -V(xc)+E(xc)   XCENC  =       499.47903582
  PAW double counting   =     10798.84552470   -11025.21141520
  entropy T*S    EENTRO =        -0.00000000
  eigenvalues    EBANDS =     -1192.13011915
  atomic energy  EATOM  =     11559.05757976
  Solvation  Ediel_sol  =         0.00000000
  ---------------------------------------------------
  free energy    TOTEN  =       -95.28350082 eV

  energy without entropy =      -95.28350082  energy(sigma->0) =      -95.28350082


--------------------------------------------------------------------------------------------------------




--------------------------------------- Iteration      1(   8)  ---------------------------------------


    POTLOK:  cpu time    0.0193: real time    0.0196
    SETDIJ:  cpu time    0.3110: real time    0.3110
    EDDIAG:  cpu time    0.0221: real time    0.0221
  RMM-DIIS:  cpu time    0.0777: real time    0.0777
    ORTHCH:  cpu time    0.0036: real time    0.0036
       DOS:  cpu time    0.0001: real time    0.0001
    CHARGE:  cpu time    0.0074: real time    0.0074
    MIXING:  cpu time    0.0012: real time    0.0012
    --------------------------------------------
      LOOP:  cpu time    0.4424: real time    0.4427

 eigenvalue-minimisations  :   271
 total energy-change (2. order) : 0.2453744E+01  (-0.1858862E+01)
 number of electron     100.0000019 magnetization       0.0000003
 augmentation part       32.9500198 magnetization      -0.0293258

 Broyden mixing:
  rms(total) = 0.14874E+01    rms(broyden)= 0.14863E+01
  rms(prec ) = 0.17984E+01
  weight for this iteration     100.00

 eigenvalues of (default mixing * dielectric matrix)
  average eigenvalue GAMMA=   0.6600
  0.9899  0.3561  0.6340

 Free energy of the ion-electron system (eV)
  ---------------------------------------------------
  alpha Z        PSCENC =       441.37612112
  Ewald energy   TEWEN  =     -7485.64291034
  -Hartree energ DENC   =     -3643.34351630
  -exchange      EXHF   =         0.00000000
  -V(xc)+E(xc)   XCENC  =       498.70026769
  PAW double counting   =     11235.64018996   -11462.28423912
  entropy T*S    EENTRO =        -0.00000000
  eigenvalues    EBANDS =     -1236.33324913
  atomic energy  EATOM  =     11559.05757976
  Solvation  Ediel_sol  =         0.00000000
  ---------------------------------------------------
  free energy    TOTEN  =       -92.82975636 eV

  energy without entropy =      -92.82975636  energy(sigma->0) =      -92.82975636


--------------------------------------------------------------------------------------------------------




--------------------------------------- Iteration      1(   9)  ---------------------------------------


    POTLOK:  cpu time    0.0222: real time    0.0222
    SETDIJ:  cpu time    0.3159: real time    0.3159
    EDDIAG:  cpu time    0.0231: real time    0.0231
  RMM-DIIS:  cpu time    0.0911: real time    0.0911
    ORTHCH:  cpu time    0.0034: real time    0.0034
       DOS:  cpu time    0.0002: real time    0.0001
    CHARGE:  cpu time    0.0079: real time    0.0080
    MIXING:  cpu time    0.0010: real time    0.0010
    --------------------------------------------
      LOOP:  cpu time    0.4646: real time    0.4648

 eigenvalue-minimisations  :   266
 total energy-change (2. order) : 0.1274922E+01  (-0.3752680E+00)
 number of electron     100.0000022 magnetization       0.0000001
 augmentation part       33.5978543 magnetization      -0.0098222

 Broyden mixing:
  rms(total) = 0.58362E+00    rms(broyden)= 0.58154E+00
  rms(prec ) = 0.66301E+00
  weight for this iteration     100.00

 eigenvalues of (default mixing * dielectric matrix)
  average eigenvalue GAMMA=   0.9032
  1.3430  1.3430  0.3510  0.5757

 Free energy of the ion-electron system (eV)
  ---------------------------------------------------
  alpha Z        PSCENC =       441.37612112
  Ewald energy   TEWEN  =     -7485.64291034
  -Hartree energ DENC   =     -3618.80266020
  -exchange      EXHF   =         0.00000000
  -V(xc)+E(xc)   XCENC  =       498.67134514
  PAW double counting   =     11540.46464003   -11769.25978479
  entropy T*S    EENTRO =        -0.00000000
  eigenvalues    EBANDS =     -1257.41916463
  atomic energy  EATOM  =     11559.05757976
  Solvation  Ediel_sol  =         0.00000000
  ---------------------------------------------------
  free energy    TOTEN  =       -91.55483391 eV

  energy without entropy =      -91.55483391  energy(sigma->0) =      -91.55483391


--------------------------------------------------------------------------------------------------------




--------------------------------------- Iteration      1(  10)  ---------------------------------------


    POTLOK:  cpu time    0.0306: real time    0.0309
    SETDIJ:  cpu time    0.3124: real time    0.3125
    EDDIAG:  cpu time    0.0152: real time    0.0156
  RMM-DIIS:  cpu time    0.0493: real time    0.0493
    ORTHCH:  cpu time    0.0026: real time    0.0026
       DOS:  cpu time    0.0001: real time    0.0001
    CHARGE:  cpu time    0.0062: real time    0.0062
    MIXING:  cpu time    0.0010: real time    0.0010
    --------------------------------------------
      LOOP:  cpu time    0.4174: real time    0.4182

 eigenvalue-minimisations  :   269
 total energy-change (2. order) :-0.6664792E-01  (-0.1554470E+00)
 number of electron     100.0000024 magnetization       0.0000001
 augmentation part       33.9970566 magnetization      -0.0012382

 Broyden mixing:
  rms(total) = 0.33863E+00    rms(broyden)= 0.33709E+00
  rms(prec ) = 0.37419E+00
  weight for this iteration     100.00

 eigenvalues of (default mixing * dielectric matrix)
  average eigenvalue GAMMA=   0.9171
  1.4317  1.4317  0.3483  0.6868  0.6868

 Free energy of the ion-electron system (eV)
  ---------------------------------------------------
  alpha Z        PSCENC =       441.37612112
  Ewald energy   TEWEN  =     -7485.64291034
  -Hartree energ DENC   =     -3605.94928136
  -exchange      EXHF   =         0.00000000
  -V(xc)+E(xc)   XCENC  =       499.21143646
  PAW double counting   =     11718.13991219   -11948.93668758
  entropy T*S    EENTRO =        -0.00000000
  eigenvalues    EBANDS =     -1268.87765207
  atomic energy  EATOM  =     11559.05757976
  Solvation  Ediel_sol  =         0.00000000
  ---------------------------------------------------
  free energy    TOTEN  =       -91.62148182 eV

  energy without entropy =      -91.62148182  energy(sigma->0) =      -91.62148182


--------------------------------------------------------------------------------------------------------




--------------------------------------- Iteration      1(  11)  ---------------------------------------


    POTLOK:  cpu time    0.0180: real time    0.0183
    SETDIJ:  cpu time    0.3106: real time    0.3106
    EDDIAG:  cpu time    0.0133: real time    0.0133
  RMM-DIIS:  cpu time    0.0477: real time    0.0477
    ORTHCH:  cpu time    0.0023: real time    0.0023
       DOS:  cpu time    0.0001: real time    0.0001
    CHARGE:  cpu time    0.0061: real time    0.0061
    MIXING:  cpu time    0.0010: real time    0.0010
    --------------------------------------------
      LOOP:  cpu time    0.3991: real time    0.3994

 eigenvalue-minimisations  :   285
 total energy-change (2. order) : 0.1729747E-01  (-0.1723117E-01)
 number of electron     100.0000024 magnetization      -0.0000000
 augmentation part       33.9304144 magnetization      -0.0000528

 Broyden mixing:
  rms(total) = 0.20328E+00    rms(broyden)= 0.20323E+00
  rms(prec ) = 0.22492E+00
  weight for this iteration     100.00

 eigenvalues of (default mixing * dielectric matrix)
  average eigenvalue GAMMA=   0.9251
  1.5543  1.5543  0.9099  0.3492  0.6295  0.5533

 Free energy of the ion-electron system (eV)
  ---------------------------------------------------
  alpha Z        PSCENC =       441.37612112
  Ewald energy   TEWEN  =     -7485.64291034
  -Hartree energ DENC   =     -3606.63054748
  -exchange      EXHF   =         0.00000000
  -V(xc)+E(xc)   XCENC  =       499.19580222
  PAW double counting   =     11749.54010145   -11981.36986596
  entropy T*S    EENTRO =        -0.00000000
  eigenvalues    EBANDS =     -1267.13046512
  atomic energy  EATOM  =     11559.05757976
  Solvation  Ediel_sol  =         0.00000000
  ---------------------------------------------------
  free energy    TOTEN  =       -91.60418435 eV

  energy without entropy =      -91.60418435  energy(sigma->0) =      -91.60418435


--------------------------------------------------------------------------------------------------------




--------------------------------------- Iteration      1(  12)  ---------------------------------------


    POTLOK:  cpu time    0.0170: real time    0.0173
    SETDIJ:  cpu time    0.3166: real time    0.3166
    EDDIAG:  cpu time    0.0145: real time    0.0145
  RMM-DIIS:  cpu time    0.0480: real time    0.0481
    ORTHCH:  cpu time    0.0024: real time    0.0024
       DOS:  cpu time    0.0001: real time    0.0001
    CHARGE:  cpu time    0.0066: real time    0.0067
    MIXING:  cpu time    0.0012: real time    0.0012
    --------------------------------------------
      LOOP:  cpu time    0.4066: real time    0.4069

 eigenvalue-minimisations  :   260
 total energy-change (2. order) : 0.5801229E-02  (-0.8850901E-02)
 number of electron     100.0000024 magnetization      -0.0000000
 augmentation part       33.8762968 magnetization      -0.0043482

 Broyden mixing:
  rms(total) = 0.11687E+00    rms(broyden)= 0.11679E+00
  rms(prec ) = 0.13105E+00
  weight for this iteration     100.00

 eigenvalues of (default mixing * dielectric matrix)
  average eigenvalue GAMMA=   0.9671
  1.7105  1.7105  1.1797  0.6913  0.6913  0.3490  0.4376

 Free energy of the ion-electron system (eV)
  ---------------------------------------------------
  alpha Z        PSCENC =       441.37612112
  Ewald energy   TEWEN  =     -7485.64291034
  -Hartree energ DENC   =     -3607.09098766
  -exchange      EXHF   =         0.00000000
  -V(xc)+E(xc)   XCENC  =       499.17328042
  PAW double counting   =     11788.99996185   -12021.76040871
  entropy T*S    EENTRO =        -0.00000000
  eigenvalues    EBANDS =     -1265.71101957
  atomic energy  EATOM  =     11559.05757976
  Solvation  Ediel_sol  =         0.00000000
  ---------------------------------------------------
  free energy    TOTEN  =       -91.59838313 eV

  energy without entropy =      -91.59838313  energy(sigma->0) =      -91.59838313


--------------------------------------------------------------------------------------------------------




--------------------------------------- Iteration      1(  13)  ---------------------------------------


    POTLOK:  cpu time    0.0188: real time    0.0190
    SETDIJ:  cpu time    0.3081: real time    0.3101
    EDDIAG:  cpu time    0.0113: real time    0.0232
  RMM-DIIS:  cpu time    0.0419: real time    0.0838
    ORTHCH:  cpu time    0.0018: real time    0.0037
       DOS:  cpu time    0.0001: real time    0.0001
    CHARGE:  cpu time    0.0039: real time    0.0077
    MIXING:  cpu time    0.0005: real time    0.0012
    --------------------------------------------
      LOOP:  cpu time    0.3864: real time    0.4488

 eigenvalue-minimisations  :   274
 total energy-change (2. order) : 0.2756235E-02  (-0.2518045E-02)
 number of electron     100.0000024 magnetization      -0.0000000
 augmentation part       33.8726765 magnetization       0.0001785

 Broyden mixing:
  rms(total) = 0.39900E-01    rms(broyden)= 0.39850E-01
  rms(prec ) = 0.43841E-01
  weight for this iteration     100.00

 eigenvalues of (default mixing * dielectric matrix)
  average eigenvalue GAMMA=   1.0196
  2.4322  1.4173  1.4173  0.7623  0.7623  0.6099  0.3491  0.4062

 Free energy of the ion-electron system (eV)
  ---------------------------------------------------
  alpha Z        PSCENC =       441.37612112
  Ewald energy   TEWEN  =     -7485.64291034
  -Hartree energ DENC   =     -3606.97707123
  -exchange      EXHF   =         0.00000000
  -V(xc)+E(xc)   XCENC  =       499.17404073
  PAW double counting   =     11826.02399721   -12059.40518299
  entropy T*S    EENTRO =        -0.00000000
  eigenvalues    EBANDS =     -1265.20220115
  atomic energy  EATOM  =     11559.05757976
  Solvation  Ediel_sol  =         0.00000000
  ---------------------------------------------------
  free energy    TOTEN  =       -91.59562689 eV

  energy without entropy =      -91.59562689  energy(sigma->0) =      -91.59562689


--------------------------------------------------------------------------------------------------------




--------------------------------------- Iteration      1(  14)  ---------------------------------------


    POTLOK:  cpu time    0.0163: real time    0.0328
    SETDIJ:  cpu time    0.3084: real time    0.3130
    EDDIAG:  cpu time    0.0151: real time    0.0151
  RMM-DIIS:  cpu time    0.0498: real time    0.0498
    ORTHCH:  cpu time    0.0024: real time    0.0024
       DOS:  cpu time    0.0001: real time    0.0001
    CHARGE:  cpu time    0.0063: real time    0.0063
    MIXING:  cpu time    0.0013: real time    0.0013
    --------------------------------------------
      LOOP:  cpu time    0.3998: real time    0.4209

 eigenvalue-minimisations  :   291
 total energy-change (2. order) : 0.1613083E-03  (-0.2828518E-03)
 number of electron     100.0000024 magnetization      -0.0000000
 augmentation part       33.8818438 magnetization      -0.0001806

 Broyden mixing:
  rms(total) = 0.15643E-01    rms(broyden)= 0.15620E-01
  rms(prec ) = 0.18428E-01
  weight for this iteration     100.00

 eigenvalues of (default mixing * dielectric matrix)
  average eigenvalue GAMMA=   0.9915
  2.4378  1.4394  1.4394  0.8175  0.8175  0.3490  0.6438  0.5673  0.4113

 Free energy of the ion-electron system (eV)
  ---------------------------------------------------
  alpha Z        PSCENC =       441.37612112
  Ewald energy   TEWEN  =     -7485.64291034
  -Hartree energ DENC   =     -3607.15514541
  -exchange      EXHF   =         0.00000000
  -V(xc)+E(xc)   XCENC  =       499.18796288
  PAW double counting   =     11840.21157201   -12073.75786683
  entropy T*S    EENTRO =        -0.00000000
  eigenvalues    EBANDS =     -1264.87277876
  atomic energy  EATOM  =     11559.05757976
  Solvation  Ediel_sol  =         0.00000000
  ---------------------------------------------------
  free energy    TOTEN  =       -91.59546558 eV

  energy without entropy =      -91.59546558  energy(sigma->0) =      -91.59546558


--------------------------------------------------------------------------------------------------------




--------------------------------------- Iteration      1(  15)  ---------------------------------------


    POTLOK:  cpu time    0.0215: real time    0.0217
    SETDIJ:  cpu time    0.3210: real time    0.3210
    EDDIAG:  cpu time    0.0143: real time    0.0143
  RMM-DIIS:  cpu time    0.0448: real time    0.0448
    ORTHCH:  cpu time    0.0022: real time    0.0022
       DOS:  cpu time    0.0001: real time    0.0001
    CHARGE:  cpu time    0.0061: real time    0.0061
    MIXING:  cpu time    0.0012: real time    0.0012
    --------------------------------------------
      LOOP:  cpu time    0.4111: real time    0.4114

 eigenvalue-minimisations  :   255
 total energy-change (2. order) : 0.7223656E-04  (-0.5879181E-04)
 number of electron     100.0000024 magnetization      -0.0000000
 augmentation part       33.8773579 magnetization       0.0001496

 Broyden mixing:
  rms(total) = 0.10805E-01    rms(broyden)= 0.10801E-01
  rms(prec ) = 0.12486E-01
  weight for this iteration     100.00

 eigenvalues of (default mixing * dielectric matrix)
  average eigenvalue GAMMA=   0.9620
  2.4240  1.4924  1.4924  0.9406  0.8323  0.6580  0.5654  0.3490  0.4328  0.4328

 Free energy of the ion-electron system (eV)
  ---------------------------------------------------
  alpha Z        PSCENC =       441.37612112
  Ewald energy   TEWEN  =     -7485.64291034
  -Hartree energ DENC   =     -3607.56787773
  -exchange      EXHF   =         0.00000000
  -V(xc)+E(xc)   XCENC  =       499.20328153
  PAW double counting   =     11841.56638762   -12075.09863458
  entropy T*S    EENTRO =        -0.00000000
  eigenvalues    EBANDS =     -1264.48934072
  atomic energy  EATOM  =     11559.05757976
  Solvation  Ediel_sol  =         0.00000000
  ---------------------------------------------------
  free energy    TOTEN  =       -91.59539335 eV

  energy without entropy =      -91.59539335  energy(sigma->0) =      -91.59539335


--------------------------------------------------------------------------------------------------------




--------------------------------------- Iteration      1(  16)  ---------------------------------------


    POTLOK:  cpu time    0.0214: real time    0.0216
    SETDIJ:  cpu time    0.3111: real time    0.3111
    EDDIAG:  cpu time    0.0139: real time    0.0139
  RMM-DIIS:  cpu time    0.0411: real time    0.0411
    ORTHCH:  cpu time    0.0023: real time    0.0023
       DOS:  cpu time    0.0001: real time    0.0001
    CHARGE:  cpu time    0.0057: real time    0.0057
    MIXING:  cpu time    0.0015: real time    0.0015
    --------------------------------------------
      LOOP:  cpu time    0.3970: real time    0.3972

 eigenvalue-minimisations  :   241
 total energy-change (2. order) : 0.2173404E-04  (-0.1976695E-04)
 number of electron     100.0000024 magnetization      -0.0000000
 augmentation part       33.8741482 magnetization      -0.0001814

 Broyden mixing:
  rms(total) = 0.51684E-02    rms(broyden)= 0.51663E-02
  rms(prec ) = 0.57856E-02
  weight for this iteration     100.00

 eigenvalues of (default mixing * dielectric matrix)
  average eigenvalue GAMMA=   0.9846
  2.4184  1.6469  1.6469  1.0398  0.9074  0.7015  0.7015  0.6046  0.3490  0.4071
  0.4071

 Free energy of the ion-electron system (eV)
  ---------------------------------------------------
  alpha Z        PSCENC =       441.37612112
  Ewald energy   TEWEN  =     -7485.64291034
  -Hartree energ DENC   =     -3607.83852015
  -exchange      EXHF   =         0.00000000
  -V(xc)+E(xc)   XCENC  =       499.21257208
  PAW double counting   =     11843.10715900   -12076.62944263
  entropy T*S    EENTRO =        -0.00000000
  eigenvalues    EBANDS =     -1264.23793045
  atomic energy  EATOM  =     11559.05757976
  Solvation  Ediel_sol  =         0.00000000
  ---------------------------------------------------
  free energy    TOTEN  =       -91.59537161 eV

  energy without entropy =      -91.59537161  energy(sigma->0) =      -91.59537161


--------------------------------------------------------------------------------------------------------




--------------------------------------- Iteration      1(  17)  ---------------------------------------


    POTLOK:  cpu time    0.0271: real time    0.0274
    SETDIJ:  cpu time    0.3182: real time    0.3182
    EDDIAG:  cpu time    0.0236: real time    0.0236
  RMM-DIIS:  cpu time    0.0624: real time    0.0624
    ORTHCH:  cpu time    0.0035: real time    0.0035
       DOS:  cpu time    0.0001: real time    0.0001
    CHARGE:  cpu time    0.0084: real time    0.0084
    MIXING:  cpu time    0.0018: real time    0.0018
    --------------------------------------------
      LOOP:  cpu time    0.4451: real time    0.4453

 eigenvalue-minimisations  :   204
 total energy-change (2. order) :-0.1756281E-04  (-0.5657728E-05)
 number of electron     100.0000024 magnetization      -0.0000000
 augmentation part       33.8727327 magnetization      -0.0000063

 Broyden mixing:
  rms(total) = 0.20612E-02    rms(broyden)= 0.20592E-02
  rms(prec ) = 0.24041E-02
  weight for this iteration     100.00

 eigenvalues of (default mixing * dielectric matrix)
  average eigenvalue GAMMA=   1.0130
  2.4634  1.7770  1.7770  1.1332  1.1332  0.7221  0.7221  0.6469  0.6114  0.3490
  0.4101  0.4101

 Free energy of the ion-electron system (eV)
  ---------------------------------------------------
  alpha Z        PSCENC =       441.37612112
  Ewald energy   TEWEN  =     -7485.64291034
  -Hartree energ DENC   =     -3607.98783100
  -exchange      EXHF   =         0.00000000
  -V(xc)+E(xc)   XCENC  =       499.21759641
  PAW double counting   =     11845.21682308   -12078.73533994
  entropy T*S    EENTRO =        -0.00000000
  eigenvalues    EBANDS =     -1264.09742826
  atomic energy  EATOM  =     11559.05757976
  Solvation  Ediel_sol  =         0.00000000
  ---------------------------------------------------
  free energy    TOTEN  =       -91.59538917 eV

  energy without entropy =      -91.59538917  energy(sigma->0) =      -91.59538917


--------------------------------------------------------------------------------------------------------




--------------------------------------- Iteration      1(  18)  ---------------------------------------


    POTLOK:  cpu time    0.0633: real time    0.0645
    SETDIJ:  cpu time    0.3281: real time    0.3846
    EDDIAG:  cpu time    0.0144: real time    0.0143
  RMM-DIIS:  cpu time    0.0331: real time    0.0331
    ORTHCH:  cpu time    0.0024: real time    0.0024
       DOS:  cpu time    0.0001: real time    0.0001
    --------------------------------------------
      LOOP:  cpu time    0.4414: real time    0.4990

 eigenvalue-minimisations  :   140
 total energy-change (2. order) :-0.6093736E-05  (-0.1065907E-05)
 number of electron     100.0000024 magnetization      -0.0000000
 augmentation part       33.8727327 magnetization      -0.0000063

 Free energy of the ion-electron system (eV)
  ---------------------------------------------------
  alpha Z        PSCENC =       441.37612112
  Ewald energy   TEWEN  =     -7485.64291034
  -Hartree energ DENC   =     -3608.03168589
  -exchange      EXHF   =         0.00000000
  -V(xc)+E(xc)   XCENC  =       499.21867688
  PAW double counting   =     11846.34779239   -12079.86359640
  entropy T*S    EENTRO =        -0.00000000
  eigenvalues    EBANDS =     -1264.05737280
  atomic energy  EATOM  =     11559.05757976
  Solvation  Ediel_sol  =         0.00000000
  ---------------------------------------------------
  free energy    TOTEN  =       -91.59539527 eV

  energy without entropy =      -91.59539527  energy(sigma->0) =      -91.59539527


--------------------------------------------------------------------------------------------------------




 average (electrostatic) potential at core
  the test charge radii are     0.9577  0.7215
  (the norm of the test charge is              1.0000)
       1 -71.8022       2 -71.8024       3 -71.8024       4 -71.8029       5 -71.1924
       6 -71.1933       7 -71.1930       8 -71.1922       9 -70.9317      10 -70.9306
      11 -70.9314      12 -70.9317
 
 
 
 E-fermi :   3.6413     XC(G=0): -11.0863     alpha+bet :-11.2923


 spin component 1

 k-point     1 :       0.0000    0.0000    0.0000
  band No.  band energies     occupation 
      1     -46.4948      1.00000
      2     -46.4947      1.00000
      3     -46.3930      1.00000
      4     -46.3928      1.00000
      5     -46.2785      1.00000
      6     -46.2781      1.00000
      7     -43.7298      1.00000
      8     -43.7295      1.00000
      9     -43.3898      1.00000
     10     -43.3892      1.00000
     11     -43.2132      1.00000
     12     -43.2121      1.00000
     13     -15.3540      1.00000
     14     -14.7862      1.00000
     15     -14.4932      1.00000
     16     -13.7233      1.00000
     17     -13.5156      1.00000
     18     -13.4083      1.00000
     19     -13.3700      1.00000
     20     -13.3297      1.00000
     21      -2.7958      1.00000
     22      -2.2757      1.00000
     23      -2.0006      1.00000
     24      -1.8526      1.00000
     25      -1.2962      1.00000
     26      -1.2674      1.00000
     27      -1.2620      1.00000
     28      -1.2230      1.00000
     29      -0.8003      1.00000
     30      -0.7691      1.00000
     31      -0.5870      1.00000
     32      -0.2963      1.00000
     33       0.2000      1.00000
     34       0.4190      1.00000
     35       0.6654      1.00000
     36       0.8963      1.00000
     37       1.0843      1.00000
     38       1.3696      1.00000
     39       1.5831      1.00000
     40       1.7216      1.00000
     41       2.0569      1.00000
     42       2.2296      1.00000
     43       2.4732      1.00000
     44       2.5369      1.00000
     45       2.5827      1.00000
     46       2.7110      1.00000
     47       3.0602      1.00000
     48       3.1600      1.00000
     49       3.1652      1.00000
     50       3.4582      1.00000
     51       4.7244      0.00000
     52       5.0001      0.00000
     53       5.0121      0.00000
     54       5.4609      0.00000
     55       5.5574      0.00000
     56       5.7104      0.00000
     57       5.9539      0.00000
     58       6.0643      0.00000
     59       6.4987      0.00000
     60       6.9980      0.00000

 spin component 2

 k-point     1 :       0.0000    0.0000    0.0000
  band No.  band energies     occupation 
      1     -46.4952      1.00000
      2     -46.4945      1.00000
      3     -46.3934      1.00000
      4     -46.3927      1.00000
      5     -46.2789      1.00000
      6     -46.2779      1.00000
      7     -43.7297      1.00000
      8     -43.7292      1.00000
      9     -43.3898      1.00000
     10     -43.3890      1.00000
     11     -43.2126      1.00000
     12     -43.2124      1.00000
     13     -15.3540      1.00000
     14     -14.7862      1.00000
     15     -14.4932      1.00000
     16     -13.7233      1.00000
     17     -13.5156      1.00000
     18     -13.4083      1.00000
     19     -13.3699      1.00000
     20     -13.3297      1.00000
     21      -2.7958      1.00000
     22      -2.2758      1.00000
     23      -2.0006      1.00000
     24      -1.8525      1.00000
     25      -1.2962      1.00000
     26      -1.2674      1.00000
     27      -1.2621      1.00000
     28      -1.2231      1.00000
     29      -0.8002      1.00000
     30      -0.7691      1.00000
     31      -0.5868      1.00000
     32      -0.2962      1.00000
     33       0.2000      1.00000
     34       0.4189      1.00000
     35       0.6654      1.00000
     36       0.8963      1.00000
     37       1.0843      1.00000
     38       1.3696      1.00000
     39       1.5830      1.00000
     40       1.7215      1.00000
     41       2.0568      1.00000
     42       2.2295      1.00000
     43       2.4733      1.00000
     44       2.5369      1.00000
     45       2.5827      1.00000
     46       2.7110      1.00000
     47       3.0601      1.00000
     48       3.1601      1.00000
     49       3.1652      1.00000
     50       3.4581      1.00000
     51       4.7244      0.00000
     52       5.0002      0.00000
     53       5.0122      0.00000
     54       5.4610      0.00000
     55       5.5575      0.00000
     56       5.7104      0.00000
     57       5.9538      0.00000
     58       6.0650      0.00000
     59       6.4985      0.00000
     60       6.9971      0.00000


--------------------------------------------------------------------------------------------------------


 soft charge-density along one line, spin component           1
         0         1         2         3         4         5         6         7         8         9
 total charge-density along one line
 
 soft charge-density along one line, spin component           2
         0         1         2         3         4         5         6         7         8         9
 total charge-density along one line
 
 pseudopotential strength for first ion, spin component:           1
-43.641   0.023  -0.000   8.469  -0.006   0.000  -0.000  -0.007
  0.023 -43.735  -0.000  -0.006   8.509   0.000  -0.000   0.012
 -0.000  -0.000 -44.020   0.000   0.000   8.632   0.009  -0.000
  8.469  -0.006   0.000   4.995   0.007  -0.000   0.000   0.003
 -0.006   8.509   0.000   0.007   4.982  -0.000  -0.000  -0.003
  0.000   0.000   8.632  -0.000  -0.000   4.933  -0.000  -0.000
 -0.000  -0.000   0.009   0.000  -0.000  -0.000  -4.141  -0.000
 -0.007   0.012  -0.000   0.003  -0.003  -0.000  -0.000  -4.012
 -0.010  -0.008   0.000   0.003   0.000  -0.000   0.000   0.183
 -0.000  -0.000   0.001  -0.000   0.000  -0.004  -0.314  -0.000
 -0.020   0.004  -0.000   0.007  -0.004   0.000   0.000  -0.251
 -0.000  -0.000   0.009   0.000  -0.000  -0.000  -4.608  -0.000
 -0.007   0.012  -0.000   0.003  -0.003  -0.000  -0.000  -4.481
 -0.010  -0.008   0.000   0.002   0.000  -0.000   0.000   0.180
 -0.000  -0.000   0.001  -0.000   0.000  -0.004  -0.309  -0.000
 -0.019   0.004  -0.000   0.007  -0.004   0.000   0.000  -0.248
 -0.003   0.002   0.000   0.002   0.001   0.000   0.000  -0.000
 -0.006   0.004   0.000   0.004   0.002   0.000   0.000  -0.000
 pseudopotential strength for first ion, spin component:           2
-45.736   0.086  -0.000   9.435  -0.043   0.000  -0.000  -0.003
  0.086 -45.794  -0.000  -0.043   9.461   0.000  -0.000   0.021
 -0.000  -0.000 -45.835   0.000   0.000   9.475   0.024  -0.000
  9.435  -0.043   0.000   4.680   0.015  -0.000   0.000   0.001
 -0.043   9.461   0.000   0.015   4.672  -0.000   0.000  -0.008
  0.000   0.000   9.475  -0.000  -0.000   4.660  -0.010   0.000
 -0.000  -0.000   0.024   0.000   0.000  -0.010  -5.809  -0.000
 -0.003   0.021  -0.000   0.001  -0.008   0.000  -0.000  -5.782
 -0.012  -0.013   0.000   0.004   0.004   0.000   0.000  -0.106
 -0.000  -0.000  -0.016   0.000   0.000   0.006   0.293  -0.000
 -0.017  -0.007  -0.000   0.006   0.003   0.000  -0.000   0.134
 -0.000  -0.000   0.024   0.000   0.000  -0.009  -6.252  -0.000
 -0.003   0.020  -0.000   0.001  -0.008   0.000  -0.000  -6.226
 -0.012  -0.013   0.000   0.004   0.004   0.000   0.000  -0.105
 -0.000  -0.000  -0.016   0.000   0.000   0.006   0.288  -0.000
 -0.017  -0.006  -0.000   0.006   0.003   0.000  -0.000   0.132
 -0.007   0.005   0.000   0.003   0.000   0.000   0.000  -0.025
 -0.014   0.010   0.000   0.005   0.001   0.000   0.000  -0.051
 total augmentation occupancy for first ion, spin component:           1
  1.986   0.001   0.000  -0.056   0.001   0.000   0.000   0.006   0.002   0.000   0.008  -0.000  -0.005  -0.002  -0.000  -0.006
  0.001   1.986   0.000   0.000  -0.055   0.000   0.000  -0.005  -0.011  -0.000  -0.006  -0.000   0.005   0.011   0.000   0.005
  0.000   0.000   1.987   0.000   0.000  -0.053   0.005   0.000  -0.000  -0.010  -0.000  -0.004  -0.000   0.000   0.009   0.000
 -0.056   0.000   0.000   0.183  -0.054   0.000  -0.000   0.066  -0.008   0.000   0.079   0.000  -0.072   0.005  -0.000  -0.076
  0.001  -0.055   0.000  -0.054   0.218  -0.000   0.000   0.001  -0.115  -0.000  -0.039  -0.000  -0.004   0.114   0.000   0.044
  0.000   0.000  -0.053   0.000  -0.000   0.199   0.074   0.000  -0.000  -0.082  -0.000  -0.094  -0.000   0.000   0.090   0.000
  0.000   0.000   0.005  -0.000   0.000   0.074   3.025   0.000  -0.000  -2.141  -0.000  -2.518  -0.000   0.000   0.535  -0.000
  0.006  -0.005   0.000   0.066   0.001   0.000   0.000   6.236   0.049   0.000  -0.097  -0.000  -5.423   0.766  -0.000  -0.844
  0.002  -0.011  -0.000  -0.008  -0.115  -0.000  -0.000   0.049   6.750  -0.000   1.093   0.000   0.807  -5.530   0.000  -0.074
  0.000  -0.000  -0.010   0.000  -0.000  -0.082  -2.141   0.000  -0.000   4.122  -0.000   0.521  -0.000   0.000  -3.279   0.000
  0.008  -0.006  -0.000   0.079  -0.039  -0.000  -0.000  -0.097   1.093  -0.000   6.301  -0.000  -0.899  -0.068   0.000  -5.564
 -0.000  -0.000  -0.004   0.000  -0.000  -0.094  -2.518  -0.000   0.000   0.521  -0.000   3.066   0.000  -0.000   0.937   0.000
 -0.005   0.005  -0.000  -0.072  -0.004  -0.000  -0.000  -5.423   0.807  -0.000  -0.899   0.000   5.615  -1.467   0.000   1.685
 -0.002   0.011   0.000   0.005   0.114   0.000   0.000   0.766  -5.530   0.000  -0.068  -0.000  -1.467   5.495  -0.000  -0.814
 -0.000   0.000   0.009  -0.000   0.000   0.090   0.535  -0.000   0.000  -3.279   0.000   0.937   0.000  -0.000   3.501   0.000
 -0.006   0.005   0.000  -0.076   0.044   0.000  -0.000  -0.844  -0.074   0.000  -5.564   0.000   1.685  -0.814   0.000   5.942
  0.014  -0.012   0.000   0.006   0.007   0.000  -0.000   0.547   0.685   0.000  -1.839   0.000  -0.688  -0.757  -0.000   1.936
 -0.006   0.006  -0.000   0.003  -0.001   0.000   0.000   0.094  -0.057  -0.000   0.182  -0.000  -0.054   0.088  -0.000  -0.224
 total augmentation occupancy for first ion, spin component:           2
  0.002  -0.001  -0.000   0.006  -0.002  -0.000   0.000   0.002  -0.000   0.000   0.001  -0.000  -0.002   0.000  -0.000  -0.001
 -0.001   0.002   0.000  -0.002   0.006   0.000  -0.000   0.002   0.000  -0.000  -0.003   0.000  -0.002   0.000   0.000   0.003
 -0.000   0.000   0.002  -0.000   0.000   0.008   0.004  -0.000  -0.000  -0.003   0.000  -0.004   0.000   0.000   0.003  -0.000
  0.006  -0.002  -0.000  -0.012   0.002  -0.000  -0.000  -0.014  -0.012  -0.000  -0.004   0.000   0.006   0.006   0.000   0.004
 -0.002   0.006   0.000   0.002  -0.008  -0.000  -0.000  -0.004   0.029  -0.000   0.021   0.000   0.001  -0.022   0.000  -0.009
 -0.000   0.000   0.008  -0.000  -0.000  -0.005  -0.039  -0.000   0.000   0.045  -0.000   0.017   0.000  -0.000  -0.024   0.000
  0.000  -0.000   0.004  -0.000  -0.000  -0.039  -1.871   0.000   0.000   3.115   0.000   0.676  -0.000  -0.000  -2.050  -0.000
  0.002   0.002  -0.000  -0.014  -0.004  -0.000   0.000  -2.682  -1.621   0.000   1.764  -0.000   1.206   1.050  -0.000  -1.099
 -0.000   0.000  -0.000  -0.012   0.029   0.000   0.000  -1.621  -4.300   0.000  -2.451  -0.000   1.029   2.419  -0.000   1.719
  0.000  -0.000  -0.003  -0.000  -0.000   0.045   3.115   0.000   0.000  -2.822   0.000  -2.012  -0.000  -0.000   1.311  -0.000
  0.001  -0.003   0.000  -0.004   0.021  -0.000   0.000   1.764  -2.451   0.000  -3.086  -0.000  -1.074   1.716  -0.000   1.495
 -0.000   0.000  -0.004   0.000   0.000   0.017   0.676  -0.000  -0.000  -2.012  -0.000  -0.016   0.000   0.000   1.423   0.000
 -0.002  -0.002   0.000   0.006   0.001   0.000  -0.000   1.206   1.029  -0.000  -1.074   0.000  -0.405  -0.701   0.000   0.729
  0.000   0.000   0.000   0.006  -0.022  -0.000  -0.000   1.050   2.419  -0.000   1.716   0.000  -0.701  -1.253   0.000  -1.228
 -0.000   0.000   0.003   0.000   0.000  -0.024  -2.050  -0.000  -0.000   1.311  -0.000   1.423   0.000   0.000  -0.468   0.000
 -0.001   0.003  -0.000   0.004  -0.009   0.000  -0.000  -1.099   1.719  -0.000   1.495   0.000   0.729  -1.228   0.000  -0.558
 -0.001   0.001  -0.000  -0.000  -0.004   0.000   0.000  -0.179  -0.017  -0.000   0.261  -0.000  -0.007   0.016   0.000  -0.149
  0.000  -0.000   0.000  -0.001   0.001  -0.000  -0.000  -0.097  -0.044   0.000   0.060   0.000   0.091   0.017  -0.000  -0.028


------------------------ aborting loop because EDIFF is reached ----------------------------------------


 


 total charge     
 
# of ion       s       p       d       tot
------------------------------------------
    1        0.322   6.347   4.946  11.615
    2        0.322   6.347   4.946  11.615
    3        0.322   6.346   4.946  11.614
    4        0.322   6.346   4.946  11.615
    5        1.588   3.437   0.000   5.024
    6        1.588   3.437   0.000   5.025
    7        1.588   3.437   0.000   5.025
    8        1.588   3.437   0.000   5.024
    9        1.574   3.494   0.000   5.069
   10        1.574   3.494   0.000   5.069
   11        1.574   3.494   0.000   5.069
   12        1.574   3.495   0.000   5.069
--------------------------------------------------
tot         13.937  53.111  19.783  86.831
 


 magnetization (x)
 
# of ion       s       p       d       tot
------------------------------------------
    1       -0.026  -0.013  -2.633  -2.672
    2        0.026   0.013   2.633   2.672
    3        0.026   0.013   2.633   2.673
    4       -0.026  -0.013  -2.633  -2.673
    5        0.002   0.022   0.000   0.024
    6       -0.002  -0.022   0.000  -0.024
    7        0.002   0.022   0.000   0.024
    8       -0.002  -0.022   0.000  -0.024
    9       -0.001   0.004   0.000   0.003
   10       -0.001   0.004   0.000   0.003
   11        0.001  -0.004   0.000  -0.003
   12        0.001  -0.004   0.000  -0.003
--------------------------------------------------
tot         -0.000  -0.000   0.000   0.000
 
    CHARGE:  cpu time    0.0066: real time    0.0066
    FORLOC:  cpu time    0.0011: real time    0.0011
    FORNL :  cpu time    0.0355: real time    0.0355
    STRESS:  cpu time    0.1067: real time    0.1067
    FORCOR:  cpu time    0.0204: real time    0.0204
    FORHAR:  cpu time    0.0025: real time    0.0025
    MIXING:  cpu time    0.0012: real time    0.0012
    OFIELD:  cpu time    0.0001: real time    0.0001

  FORCE on cell =-STRESS in cart. coord.  units (eV):
  Direction    XX          YY          ZZ          XY          YZ          ZX
  --------------------------------------------------------------------------------------
  Alpha Z   441.37612   441.37612   441.37612
  Ewald   -1252.10130 -4029.82518 -2203.72685     0.00035     0.08268     0.00014
  Hartree  2047.26847   136.74639  1424.04648     0.00029     0.02698    -0.00000
  E(xc)    -549.41520  -550.28730  -549.40363    -0.00000     0.00002     0.00001
  Local   -2399.50929  2244.74502  -846.33307    -0.00099    -0.10419     0.00011
  n-local  -329.15281  -341.96909  -338.80511     0.00002    -0.00312     0.00001
  augment   446.15117   461.26097   455.47553     0.00010     0.00109    -0.00006
  Kinetic  1596.77773  1624.14920  1604.92128     0.00002     0.00019    -0.00000
  Fock        0.00000     0.00000     0.00000     0.00000     0.00000     0.00000
  -------------------------------------------------------------------------------------
  Total       1.39489   -13.80386   -12.44926    -0.00020     0.00365     0.00020
  in kB      17.73134  -175.47020  -158.25088    -0.00259     0.04644     0.00252
  external pressure =     -105.33 kB  Pullay stress =        0.00 kB


 VOLUME and BASIS-vectors are now :
 -----------------------------------------------------------------------------
  energy-cutoff  :      400.00
  volume of cell :      126.04
      direct lattice vectors                 reciprocal lattice vectors
     2.916331000  0.000000000  0.000000000     0.342896605  0.000000075 -0.000000073
    -0.000001000  4.580966000  0.000145000     0.000000000  0.218294570 -0.000006941
     0.000002000  0.000300000  9.434393000     0.000000000 -0.000003355  0.105995161

  length of vectors
     2.916331000  4.580966002  9.434393005     0.342896605  0.218294570  0.105995161


 FORCES acting on ions
    electron-ion (+dipol)            ewald-force                    non-local-force                 convergence-correction
 -----------------------------------------------------------------------------------------------
   0.128E-03 -.205E+02 0.119E+03   -.670E-04 0.207E+02 -.121E+03   0.116E-03 -.682E-01 0.129E+01   -.273E-03 -.201E-02 -.126E-01
   -.156E-02 0.205E+02 -.119E+03   0.143E-02 -.207E+02 0.120E+03   0.794E-04 0.691E-01 -.129E+01   -.736E-05 0.452E-02 0.122E-01
   -.778E-05 -.206E+02 -.120E+03   0.978E-04 0.208E+02 0.121E+03   0.705E-04 -.678E-01 -.129E+01   -.221E-03 -.261E-03 -.674E-02
   0.147E-02 0.206E+02 0.120E+03   -.146E-02 -.208E+02 -.121E+03   -.114E-03 0.678E-01 0.129E+01   0.545E-04 -.525E-02 0.945E-02
   0.116E-03 -.349E+03 0.349E+02   -.901E-04 0.368E+03 -.338E+02   -.242E-03 -.207E+02 0.446E+00   0.260E-03 0.336E-02 0.170E-02
   -.323E-03 -.349E+03 -.349E+02   0.173E-03 0.368E+03 0.338E+02   -.625E-04 -.207E+02 -.435E+00   0.294E-03 -.628E-03 -.267E-02
   0.891E-03 0.349E+03 0.350E+02   -.795E-03 -.368E+03 -.338E+02   0.122E-03 0.207E+02 0.436E+00   -.174E-03 0.474E-03 0.723E-03
   -.575E-03 0.349E+03 -.350E+02   0.713E-03 -.368E+03 0.338E+02   0.317E-04 0.207E+02 -.445E+00   -.157E-03 -.417E-02 0.230E-02
   0.103E-02 -.884E+02 -.323E+02   -.107E-02 0.895E+02 0.287E+02   0.136E-03 -.234E+01 0.249E+01   -.114E-03 -.352E-02 0.198E-02
   0.577E-04 0.882E+02 -.324E+02   -.149E-03 -.894E+02 0.288E+02   0.239E-04 0.237E+01 0.252E+01   0.104E-03 -.176E-02 -.196E-02
   -.104E-02 -.882E+02 0.323E+02   0.123E-02 0.894E+02 -.288E+02   -.385E-04 -.237E+01 -.252E+01   -.119E-03 0.358E-02 0.108E-02
   0.427E-04 0.884E+02 0.323E+02   -.787E-05 -.896E+02 -.288E+02   -.763E-04 0.234E+01 -.249E+01   0.759E-04 0.199E-02 -.267E-02
 -----------------------------------------------------------------------------------------------
   0.221E-03 0.119E-02 -.329E-02   0.113E-13 0.995E-13 -.355E-13   0.472E-04 0.225E-02 0.117E-02   -.276E-03 -.368E-02 0.274E-02
 
 
 POSITION                                       TOTAL-FORCE (eV/Angst)
 -----------------------------------------------------------------------------------
      0.72908      0.09767      8.16089        -0.000095      0.194576      0.253882
      2.18724      4.48362      1.27371        -0.000057     -0.194410     -0.255043
      2.18725      2.38829      5.99061        -0.000060      0.192578     -0.254751
      0.72909      2.19297      3.44385        -0.000059     -0.193573      0.256022
      0.72908      3.26386      5.06571         0.000046     -1.850737      1.574519
      2.18725      0.97293      9.08584         0.000083     -1.845071     -1.572744
      0.72908      3.60834      0.34874         0.000045      1.845197      1.573060
      2.18725      1.31740      4.36879         0.000012      1.850708     -1.574533
      0.72908      0.87650      2.04078        -0.000022     -1.177140     -1.061325
      0.72908      1.41363      6.75741         0.000037      1.184976     -1.060150
      2.18725      3.16763      2.67713         0.000034     -1.184384      1.059669
      2.18725      3.70476      7.39378         0.000035      1.177280      1.061394
 -----------------------------------------------------------------------------------
    total drift:                               -0.000008     -0.000236      0.000615


--------------------------------------------------------------------------------------------------------



  FREE ENERGIE OF THE ION-ELECTRON SYSTEM (eV)
  ---------------------------------------------------
  free  energy   TOTEN  =       -91.59539527 eV

  energy  without entropy=      -91.59539527  energy(sigma->0) =      -91.59539527
 


--------------------------------------------------------------------------------------------------------


    POTLOK:  cpu time    0.3312: real time    0.3312


--------------------------------------------------------------------------------------------------------


 stress matrix after NEB project (eV)
      1.39489     -0.00020      0.00020
     -0.00020    -13.80386      0.00365
      0.00020      0.00365    -12.44926
  FORCES: max atom, RMS     2.429884    1.684592
  FORCE total and by dimension    5.835599    1.850737
  Stress total and by dimension   18.640717   13.803863


--------------------------------------------------------------------------------------------------------


    WAVPRE:  cpu time    0.5817: real time    0.9604
    FEWALD:  cpu time    0.0033: real time    0.0033

 real space projection operators:
  total allocation   :       4315.25 KBytes
  max/ min on nodes  :       1085.00       1072.62

    ORTHCH:  cpu time    0.0171: real time    0.0171
     LOOP+:  cpu time    8.0894: real time    8.6434


--------------------------------------- Iteration      2(   1)  ---------------------------------------


    POTLOK:  cpu time    0.0233: real time    0.0310
    SETDIJ:  cpu time    0.3111: real time    0.3111
     EDDAV:  cpu time    0.1066: real time    0.1066
       DOS:  cpu time    0.0001: real time    0.0001
    CHARGE:  cpu time    0.0070: real time    0.0070
    MIXING:  cpu time    0.0011: real time    0.0011
    --------------------------------------------
      LOOP:  cpu time    0.4493: real time    0.4570

 eigenvalue-minimisations  :   240
 total energy-change (2. order) : 0.7037656E+00  (-0.4428930E+02)
 number of electron      99.9999981 magnetization      -0.0000000
 augmentation part       34.0180990 magnetization       0.0000205

 Broyden mixing:
  rms(total) = 0.79011E+00    rms(broyden)= 0.78877E+00
  rms(prec ) = 0.80732E+00
  weight for this iteration     100.00

 Free energy of the ion-electron system (eV)
  ---------------------------------------------------
  alpha Z        PSCENC =       441.37612112
  Ewald energy   TEWEN  =     -7296.86996812
  -Hartree energ DENC   =     -3779.44072949
  -exchange      EXHF   =         0.00000000
  -V(xc)+E(xc)   XCENC  =       500.43021066
  PAW double counting   =     11846.65090459   -12080.16271168
  entropy T*S    EENTRO =        -0.00000000
  eigenvalues    EBANDS =     -1281.93303045
  atomic energy  EATOM  =     11559.05757976
  Solvation  Ediel_sol  =         0.00000000
  ---------------------------------------------------
  free energy    TOTEN  =       -90.89162360 eV

  energy without entropy =      -90.89162360  energy(sigma->0) =      -90.89162360


[...]
     38       1.0651      1.00000
     39       1.0785      1.00000
     40       1.1242      1.00000
     41       1.5651      1.00000
     42       1.9895      1.00000
     43       2.2110      1.00000
     44       2.8619      1.00000
     45       3.1629      1.00000
     46       3.2285      1.00000
     47       3.3659      1.00000
     48       3.5772      1.00000
     49       4.1638      1.00000
     50       4.3261      1.00000
     51       5.7616      0.00000
     52       5.7760      0.00000
     53       5.7843      0.00000
     54       5.8975      0.00000
     55       6.3182      0.00000
     56       6.3945      0.00000
     57       6.9040      0.00000
     58       7.1607      0.00000
     59       7.5869      0.00000
     60       7.6562      0.00000

 spin component 2

 k-point     1 :       0.0000    0.0000    0.0000
  band No.  band energies     occupation 
      1     -45.7313      1.00000
      2     -45.7293      1.00000
      3     -45.6635      1.00000
      4     -45.6601      1.00000
      5     -45.3471      1.00000
      6     -45.3451      1.00000
      7     -43.5641      1.00000
      8     -43.5636      1.00000
      9     -43.2156      1.00000
     10     -43.2144      1.00000
     11     -42.6261      1.00000
     12     -42.6223      1.00000
     13     -15.6705      1.00000
     14     -15.2991      1.00000
     15     -14.9957      1.00000
     16     -14.5730      1.00000
     17     -13.5678      1.00000
     18     -13.5447      1.00000
     19     -13.4317      1.00000
     20     -13.4138      1.00000
     21      -2.7955      1.00000
     22      -2.6679      1.00000
     23      -2.2195      1.00000
     24      -2.1331      1.00000
     25      -1.8544      1.00000
     26      -1.8445      1.00000
     27      -1.3814      1.00000
     28      -1.3600      1.00000
     29      -1.3071      1.00000
     30      -0.8942      1.00000
     31      -0.8839      1.00000
     32      -0.6531      1.00000
     33       0.2991      1.00000
     34       0.5015      1.00000
     35       0.5344      1.00000
     36       0.6362      1.00000
     37       0.9200      1.00000
     38       1.0538      1.00000
     39       1.0809      1.00000
     40       1.1242      1.00000
     41       1.5774      1.00000
     42       1.9936      1.00000
     43       2.2106      1.00000
     44       2.8626      1.00000
     45       3.1537      1.00000
     46       3.2201      1.00000
     47       3.3655      1.00000
     48       3.5763      1.00000
     49       4.1687      1.00000
     50       4.3312      1.00000
     51       5.7602      0.00000
     52       5.7821      0.00000
     53       5.7892      0.00000
     54       5.8961      0.00000
     55       6.3133      0.00000
     56       6.3916      0.00000
     57       6.9009      0.00000
     58       7.1585      0.00000
     59       7.5885      0.00000
     60       7.6591      0.00000


--------------------------------------------------------------------------------------------------------


 soft charge-density along one line, spin component           1
         0         1         2         3         4         5         6         7         8         9
 total charge-density along one line
 
 soft charge-density along one line, spin component           2
         0         1         2         3         4         5         6         7         8         9
 total charge-density along one line
 
 pseudopotential strength for first ion, spin component:           1
-43.161  -0.010   0.000   8.236   0.004  -0.000   0.000  -0.084
 -0.010 -43.576   0.000   0.004   8.417  -0.000   0.000  -0.047
  0.000   0.000 -43.826  -0.000  -0.000   8.532  -0.059   0.000
  8.236   0.004  -0.000   5.062  -0.001   0.000  -0.000   0.030
  0.004   8.417  -0.000  -0.001   5.007   0.000   0.000   0.020
 -0.000  -0.000   8.532   0.000   0.000   4.963   0.025   0.000
  0.000   0.000  -0.059  -0.000   0.000   0.025  -3.888   0.000
 -0.084  -0.047   0.000   0.030   0.020   0.000   0.000  -3.764
  0.011  -0.068  -0.000  -0.006   0.025   0.000  -0.000   0.158
  0.000   0.000  -0.094   0.000  -0.000   0.014  -0.273   0.000
  0.006  -0.005   0.000  -0.005  -0.008  -0.000   0.000  -0.193
  0.000   0.000  -0.058  -0.000   0.000   0.024  -4.361   0.000
 -0.082  -0.046   0.000   0.031   0.019   0.000   0.000  -4.238
  0.010  -0.067  -0.000  -0.006   0.025   0.000  -0.000   0.156
  0.000   0.000  -0.094   0.000  -0.000   0.013  -0.268   0.000
  0.006  -0.006   0.000  -0.004  -0.009  -0.000   0.000  -0.191
  0.017   0.022  -0.000  -0.011  -0.000   0.000  -0.000   0.003
  0.035   0.043  -0.000  -0.021  -0.000   0.000  -0.000   0.006
 pseudopotential strength for first ion, spin component:           2
-45.004   0.022   0.000   9.091  -0.017  -0.000   0.000  -0.058
  0.022 -45.283   0.000  -0.017   9.209  -0.000   0.000  -0.013
  0.000   0.000 -45.271  -0.000  -0.000   9.207  -0.018   0.000
  9.091  -0.017  -0.000   4.787   0.005   0.000  -0.000   0.016
 -0.017   9.209  -0.000   0.005   4.752   0.000  -0.000   0.005
 -0.000  -0.000   9.207   0.000   0.000   4.745   0.004  -0.000
  0.000   0.000  -0.018  -0.000  -0.000   0.004  -5.236   0.000
 -0.058  -0.013   0.000   0.016   0.005  -0.000   0.000  -5.255
  0.015  -0.074  -0.000  -0.008   0.027   0.000  -0.000  -0.104
  0.000   0.000  -0.134  -0.000  -0.000   0.037   0.207   0.000
  0.021  -0.038   0.000  -0.015   0.010  -0.000  -0.000   0.126
  0.000   0.000  -0.018  -0.000  -0.000   0.003  -5.689   0.000
 -0.057  -0.012   0.000   0.016   0.005  -0.000   0.000  -5.708
  0.015  -0.073  -0.000  -0.007   0.027   0.000  -0.000  -0.103
  0.000   0.000  -0.132  -0.000  -0.000   0.036   0.202   0.000
  0.020  -0.037   0.000  -0.014   0.010  -0.000  -0.000   0.124
  0.009   0.026  -0.000  -0.006  -0.003   0.000  -0.000  -0.012
  0.019   0.051  -0.000  -0.011  -0.005   0.000  -0.000  -0.025
 total augmentation occupancy for first ion, spin component:           1
  1.989   0.000  -0.000  -0.044  -0.002  -0.000   0.000   0.050  -0.015   0.000   0.003  -0.000  -0.044   0.015  -0.000  -0.001
  0.000   1.988  -0.000  -0.002  -0.046  -0.000   0.000  -0.042   0.038   0.000  -0.029  -0.000   0.040  -0.034  -0.000   0.026
 -0.000  -0.000   1.989  -0.000  -0.000  -0.040  -0.028   0.000  -0.000  -0.059   0.000   0.030  -0.000   0.000   0.059  -0.000
 -0.044  -0.002  -0.000   0.191  -0.054  -0.000   0.001   0.328  -0.002   0.001   0.082  -0.001  -0.388   0.022  -0.001  -0.113
 -0.002  -0.046  -0.000  -0.054   0.210  -0.000   0.001  -0.461   0.126   0.001  -0.410  -0.001   0.515  -0.213  -0.001   0.461
 -0.000  -0.000  -0.040  -0.000  -0.000   0.279  -0.169   0.001  -0.000  -0.482   0.000   0.237  -0.001   0.000   0.663  -0.001
  0.000   0.000  -0.028   0.001   0.001  -0.169   4.087  -0.002   0.001  -0.705  -0.000  -3.865   0.003  -0.001  -1.008   0.001
  0.050  -0.042   0.000   0.328  -0.461   0.001  -0.002   7.820  -0.188  -0.002  -0.253   0.003  -6.930   1.053   0.002  -0.662
 -0.015   0.038  -0.000  -0.002   0.126  -0.000   0.001  -0.188   6.583   0.002  -0.486  -0.001   1.134  -5.982  -0.001   1.697
  0.000   0.000  -0.059   0.001   0.001  -0.482  -0.705  -0.002   0.002   4.465  -0.005  -1.087   0.002  -0.001  -4.488   0.005
  0.003  -0.029   0.000   0.082  -0.410   0.000  -0.000  -0.253  -0.486  -0.005  10.325   0.001  -0.732   1.699   0.005  -9.846
 -0.000  -0.000   0.030  -0.001  -0.001   0.237  -3.865   0.003  -0.001  -1.087   0.001   4.783  -0.003   0.001   2.553  -0.002
 -0.044   0.040  -0.000  -0.388   0.515  -0.001   0.003  -6.930   1.134   0.002  -0.732  -0.003   7.208  -1.818  -0.003   1.478
  0.015  -0.034   0.000   0.022  -0.213   0.000  -0.001   1.053  -5.982  -0.001   1.699   0.001  -1.818   6.449  -0.000  -2.736
 -0.000  -0.000   0.059  -0.001  -0.001   0.663  -1.008   0.002  -0.001  -4.488   0.005   2.553  -0.003  -0.000   5.550  -0.005
 -0.001   0.026  -0.000  -0.113   0.461  -0.001   0.001  -0.662   1.697   0.005  -9.846  -0.002   1.478  -2.736  -0.005  10.504
  0.011  -0.103  -0.000   0.188  -0.146  -0.001   0.000   0.829   0.998   0.003  -3.044  -0.000  -0.974  -1.170  -0.003   2.993
 -0.006   0.051   0.000  -0.028  -0.000   0.000  -0.000   0.129  -0.106  -0.000   0.407   0.000  -0.068   0.189   0.000  -0.415
 total augmentation occupancy for first ion, spin component:           2
  0.002  -0.001   0.000   0.006  -0.002   0.000   0.000   0.007  -0.001   0.000   0.004  -0.000  -0.005   0.001  -0.000  -0.005
 -0.001   0.002  -0.000  -0.002   0.006  -0.000   0.000   0.008   0.002   0.000  -0.005  -0.000  -0.007  -0.000  -0.000   0.005
  0.000  -0.000   0.002   0.000  -0.000   0.008   0.010   0.000   0.000  -0.008  -0.000  -0.011  -0.000  -0.000   0.007   0.000
  0.006  -0.002   0.000  -0.010   0.003  -0.000  -0.000  -0.054  -0.078   0.000   0.001   0.000   0.023   0.048  -0.000  -0.009
 -0.002   0.006  -0.000   0.003  -0.003  -0.000   0.000  -0.046   0.087  -0.000   0.030  -0.000   0.032  -0.070  -0.000  -0.014
  0.000  -0.000   0.008  -0.000  -0.000  -0.005  -0.124  -0.000  -0.000   0.024   0.000   0.062   0.000   0.000   0.020  -0.000
  0.000   0.000   0.010  -0.000   0.000  -0.124  -1.726  -0.001  -0.001   2.721  -0.003   0.659   0.000   0.000  -1.831   0.002
  0.007   0.008   0.000  -0.054  -0.046  -0.000  -0.001  -3.436  -1.702   0.000   2.443   0.000   1.853   1.150   0.000  -1.684
 -0.001   0.002   0.000  -0.078   0.087  -0.000  -0.001  -1.702  -3.075  -0.002  -2.251   0.000   1.028   1.558   0.001   1.489
  0.000   0.000  -0.008   0.000  -0.000   0.024   2.721   0.000  -0.002  -1.753   0.000  -1.683   0.000   0.001   0.627  -0.000
  0.004  -0.005  -0.000   0.001   0.030   0.000  -0.003   2.443  -2.251   0.000  -3.955   0.002  -1.604   1.538  -0.000   2.248
 -0.000  -0.000  -0.011   0.000  -0.000   0.062   0.659   0.000   0.000  -1.683   0.002  -0.023  -0.000  -0.000   1.171  -0.001
 -0.005  -0.007  -0.000   0.023   0.032   0.000   0.000   1.853   1.028   0.000  -1.604  -0.000  -0.881  -0.706  -0.000   1.126
  0.001  -0.000  -0.000   0.048  -0.070   0.000   0.000   1.150   1.558   0.001   1.538  -0.000  -0.706  -0.648  -0.001  -1.061
 -0.000  -0.000   0.007  -0.000  -0.000   0.020  -1.831   0.000   0.001   0.627  -0.000   1.171  -0.000  -0.001   0.037   0.000
 -0.005   0.005   0.000  -0.009  -0.014  -0.000   0.002  -1.684   1.489  -0.000   2.248  -0.001   1.126  -1.061   0.000  -1.145
 -0.001  -0.000  -0.000   0.010  -0.024  -0.000   0.000  -0.301   0.148   0.000   0.640  -0.000   0.124  -0.067  -0.000  -0.461
  0.000   0.001   0.000  -0.009   0.012   0.000   0.000  -0.140  -0.119  -0.000  -0.005  -0.000   0.108   0.059   0.000   0.027


------------------------ aborting loop because EDIFF is reached ----------------------------------------


 


 total charge     
 
# of ion       s       p       d       tot
------------------------------------------
    1        0.345   6.399   5.225  11.969
    2        0.346   6.399   5.224  11.969
    3        0.346   6.398   5.223  11.967
    4        0.346   6.399   5.226  11.970
    5        1.604   3.428   0.000   5.032
    6        1.604   3.430   0.000   5.034
    7        1.604   3.429   0.000   5.033
    8        1.604   3.429   0.000   5.034
    9        1.586   3.506   0.000   5.092
   10        1.586   3.506   0.000   5.092
   11        1.586   3.506   0.000   5.092
   12        1.586   3.506   0.000   5.092
--------------------------------------------------
tot         14.142  53.336  20.898  88.376
 


 magnetization (x)
 
# of ion       s       p       d       tot
------------------------------------------
    1       -0.038  -0.010  -2.177  -2.224
    2        0.038   0.009   2.175   2.222
    3        0.038   0.010   2.177   2.224
    4       -0.038  -0.009  -2.175  -2.222
    5        0.003   0.117   0.000   0.120
    6       -0.003  -0.117   0.000  -0.119
    7        0.003   0.117   0.000   0.120
    8       -0.003  -0.117   0.000  -0.119
    9        0.006   0.005   0.000   0.011
   10        0.006   0.006   0.000   0.011
   11       -0.006  -0.006   0.000  -0.011
   12       -0.006  -0.006   0.000  -0.012
--------------------------------------------------
tot         -0.000  -0.000  -0.000  -0.000
 
    CHARGE:  cpu time    0.0088: real time    0.0088
    FORLOC:  cpu time    0.0018: real time    0.0018
    FORNL :  cpu time    0.0601: real time    0.0601
    STRESS:  cpu time    0.1028: real time    0.1099
    FORCOR:  cpu time    0.0178: real time    0.0178
    FORHAR:  cpu time    0.0027: real time    0.0027
    MIXING:  cpu time    0.0007: real time    0.0007
    OFIELD:  cpu time    0.0000: real time    0.0000

  FORCE on cell =-STRESS in cart. coord.  units (eV):
  Direction    XX          YY          ZZ          XY          YZ          ZX
  --------------------------------------------------------------------------------------
  Alpha Z   441.37612   441.37612   441.37612
  Ewald    -829.77753 -3268.64328 -3358.79122     0.03613    -0.66858     0.11111
  Hartree  2235.85757   771.10438   639.46303     0.01633    -0.50602     0.04618
  E(xc)    -549.47327  -551.32996  -551.56970     0.00007    -0.00036     0.00022
  Local   -2979.98282   828.19042  1105.35103    -0.05122     1.20034    -0.15151
  n-local  -331.74315  -347.73385  -336.72097     0.00062     0.01654     0.00296
  augment   435.02409   467.76479   443.94933    -0.00023    -0.01286    -0.00178
  Kinetic  1571.82227  1658.75794  1619.00458    -0.00088    -0.02088    -0.00225
  Fock        0.00000     0.00000     0.00000     0.00000     0.00000     0.00000
  -------------------------------------------------------------------------------------
  Total      -6.89672    -0.51343     2.06220     0.00083     0.00819     0.00493
  in kB     -87.66885    -6.52661    26.21403     0.01051     0.10416     0.06266
  external pressure =      -22.66 kB  Pullay stress =        0.00 kB


 VOLUME and BASIS-vectors are now :
 -----------------------------------------------------------------------------
  energy-cutoff  :      400.00
  volume of cell :      126.04
      direct lattice vectors                 reciprocal lattice vectors
     2.916331000  0.000000000  0.000000000     0.342896605  0.000000075 -0.000000073
    -0.000001000  4.580966000  0.000145000     0.000000000  0.218294570 -0.000006941
     0.000002000  0.000300000  9.434393000     0.000000000 -0.000003355  0.105995161

  length of vectors
     2.916331000  4.580966002  9.434393005     0.342896605  0.218294570  0.105995161


 FORCES acting on ions
    electron-ion (+dipol)            ewald-force                    non-local-force                 convergence-correction
 -----------------------------------------------------------------------------------------------
   -.311E+00 0.549E+02 -.146E+03   0.316E+00 -.524E+02 0.141E+03   0.847E-02 -.223E+01 0.534E+01   -.163E-02 -.527E-01 0.353E-01
   -.396E+00 -.551E+02 0.147E+03   0.402E+00 0.525E+02 -.141E+03   0.125E-01 0.225E+01 -.534E+01   -.290E-02 0.612E-01 -.269E-01
   -.935E-01 0.544E+02 0.146E+03   0.958E-01 -.518E+02 -.141E+03   0.284E-02 -.225E+01 -.534E+01   -.690E-03 -.495E-01 0.210E-01
   -.162E-01 -.549E+02 -.146E+03   0.175E-01 0.524E+02 0.141E+03   0.478E-03 0.224E+01 0.534E+01   -.325E-03 0.391E-01 -.133E-01
   0.784E-01 -.222E+03 0.262E+03   -.870E-01 0.233E+03 -.275E+03   0.560E-02 -.116E+02 0.136E+02   -.509E-03 0.145E-01 -.134E-02
   0.229E+00 -.222E+03 -.262E+03   -.253E+00 0.233E+03 0.276E+03   0.157E-01 -.116E+02 -.136E+02   -.153E-02 0.865E-02 0.183E-01
   0.306E+00 0.222E+03 0.262E+03   -.338E+00 -.233E+03 -.276E+03   0.198E-01 0.116E+02 0.136E+02   -.183E-02 0.153E-02 -.158E-02
   0.192E-01 0.222E+03 -.262E+03   -.219E-01 -.233E+03 0.276E+03   0.195E-02 0.116E+02 -.136E+02   -.193E-03 -.250E-01 0.173E-01
   0.779E-01 -.794E+02 0.107E+03   -.912E-01 0.761E+02 -.119E+03   0.114E-01 0.338E+01 0.119E+02   -.204E-03 -.319E-01 -.252E-01
   -.841E-02 0.801E+02 0.106E+03   0.667E-02 -.768E+02 -.118E+03   0.875E-03 -.335E+01 0.119E+02   -.294E-04 0.652E-02 0.152E-01
   -.297E-01 -.788E+02 -.107E+03   0.307E-01 0.754E+02 0.119E+03   -.129E-02 0.344E+01 -.119E+02   -.238E-04 0.130E-01 -.306E-01
   0.653E-01 0.790E+02 -.106E+03   -.775E-01 -.756E+02 0.118E+03   0.101E-01 -.344E+01 -.119E+02   -.180E-03 0.117E-01 0.945E-02
 -----------------------------------------------------------------------------------------------
   -.795E-01 -.350E-01 0.455E-01   0.111E-13 -.426E-13 0.142E-12   0.885E-01 0.370E-01 -.631E-01   -.100E-01 -.288E-02 0.176E-01
 
 
 POSITION                                       TOTAL-FORCE (eV/Angst)
 -----------------------------------------------------------------------------------
      0.72878      0.64207      8.01823         0.011933      0.224873     -0.058239
      2.18693      3.93957      1.41793         0.015973     -0.248129     -0.003401
      2.18715      2.93135      6.13521         0.004573      0.279850     -0.029322
      0.72903      1.64880      3.30080         0.001578     -0.228443     -0.032638
      0.72916      3.51042      5.34537        -0.003437     -0.247521      0.025466
      2.18746      1.21875      8.80459        -0.010497     -0.194413      0.044276
      0.72943      3.36152      0.62951        -0.014085      0.229520     -0.005654
      2.18725      1.07185      4.08791        -0.000904      0.206982      0.026773
      0.72913      0.55471      1.94626        -0.001966      0.054733     -0.024556
      0.72911      1.73679      6.66286        -0.000804     -0.068525     -0.009198
      2.18725      2.84493      2.77055        -0.000168      0.054961      0.038324
      2.18732      4.02683      7.48802        -0.002195     -0.063889      0.028171
 -----------------------------------------------------------------------------------
    total drift:                               -0.001127     -0.000839      0.000032


--------------------------------------------------------------------------------------------------------



  FREE ENERGIE OF THE ION-ELECTRON SYSTEM (eV)
  ---------------------------------------------------
  free  energy   TOTEN  =       -93.98336115 eV

  energy  without entropy=      -93.98336115  energy(sigma->0) =      -93.98336115
 
 d Force = 0.1321701E-01[ 0.100E-01, 0.164E-01]  d Energy = 0.1323248E-01-0.155E-04
 d Force = 0.4008829E+00[ 0.407E+00, 0.395E+00]  d Ewald  = 0.4010163E+00-0.133E-03


--------------------------------------------------------------------------------------------------------


    POTLOK:  cpu time    0.3387: real time    0.3387


--------------------------------------------------------------------------------------------------------


 stress matrix after NEB project (eV)
     -6.89672      0.00083      0.00493
      0.00083     -0.51343      0.00820
      0.00493      0.00819      2.06220
  FORCES: max atom, RMS     0.281420    0.196724
  FORCE total and by dimension    0.681472    0.279850
  Stress total and by dimension    7.216732    6.896720
 Conjugate gradient step on ions:
 trial-energy change:   -0.013232  1 .order   -0.013217   -0.016395   -0.010039
  (g-gl).g = 0.358E-01      g.g   = 0.536E-01  gl.gl    = 0.147E+00
 g(Force)  = 0.536E-01   g(Stress)= 0.000E+00 ortho     = 0.132E-02
 gamma     =   0.24260
 trial     =   0.30405
 opt step  =   0.78435  (harmonic =   0.78435) maximal distance =0.04041498
 next E    =   -93.991275   (d E  =  -0.02115)


--------------------------------------------------------------------------------------------------------


    WAVPRE:  cpu time    0.0033: real time    0.0166
    FEWALD:  cpu time    0.0002: real time    0.0002

 real space projection operators:
  total allocation   :       4312.44 KBytes
  max/ min on nodes  :       1082.61       1073.56

    ORTHCH:  cpu time    0.0098: real time    0.0098
     LOOP+:  cpu time    4.6426: real time    5.0335


--------------------------------------- Iteration     41(   1)  ---------------------------------------


    POTLOK:  cpu time    0.0183: real time    0.0244
