PROCAR lm decomposed
# of k-points:    1         # of bands:   60         # of ions:   12

 k-point     1 :    0.00000000 0.00000000 0.00000000     weight = 1.00000000

band     1 # energy  -45.70808194 # occ.  1.00000000
 
ion      s     py     pz     px    dxy    dyz    dz2    dxz  x2-y2    tot
    1  0.000  0.000  0.000  0.000  0.000  0.000  0.000  0.000  0.000  0.000
    2  0.000  0.001  0.101  0.000  0.000  0.000  0.000  0.000  0.000  0.101
    3  0.000  0.005  0.886  0.000  0.000  0.000  0.000  0.000  0.000  0.891
    4  0.000  0.000  0.000  0.000  0.000  0.000  0.000  0.000  0.000  0.000
    5  0.001  0.000  0.000  0.000  0.000  0.000  0.000  0.000  0.000  0.001
    6  0.000  0.000  0.000  0.000  0.000  0.000  0.000  0.000  0.000  0.000
    7  0.000  0.000  0.000  0.000  0.000  0.000  0.000  0.000  0.000  0.000
    8  0.000  0.000  0.000  0.000  0.000  0.000  0.000  0.000  0.000  0.000
    9  0.000  0.000  0.000  0.000  0.000  0.000  0.000  0.000  0.000  0.000
   10  0.000  0.000  0.000  0.000  0.000  0.000  0.000  0.000  0.000  0.000
   11  0.000  0.000  0.000  0.000  0.000  0.000  0.000  0.000  0.000  0.000
   12  0.001  0.000  0.000  0.000  0.000  0.000  0.000  0.000  0.000  0.002
tot    0.002  0.006  0.987  0.000  0.000  0.000  0.000  0.000  0.000  0.995
 
band     2 # energy  -45.70774346 # occ.  1.00000000
 
ion      s     py     pz     px    dxy    dyz    dz2    dxz  x2-y2    tot
    1  0.000  0.000  0.000  0.000  0.000  0.000  0.000  0.000  0.000  0.000
    2  0.000  0.005  0.886  0.000  0.000  0.000  0.000  0.000  0.000  0.891
    3  0.000  0.001  0.101  0.000  0.000  0.000  0.000  0.000  0.000  0.101
    4  0.000  0.000  0.000  0.000  0.000  0.000  0.000  0.000  0.000  0.000
    5  0.000  0.000  0.000  0.000  0.000  0.000  0.000  0.000  0.000  0.000
    6  0.000  0.000  0.000  0.000  0.000  0.000  0.000  0.000  0.000  0.000
    7  0.001  0.000  0.000  0.000  0.000  0.000  0.000  0.000  0.000  0.001
    8  0.000  0.000  0.000  0.000  0.000  0.000  0.000  0.000  0.000  0.000
    9  0.000  0.000  0.000  0.000  0.000  0.000  0.000  0.000  0.000  0.000
   10  0.000  0.000  0.000  0.000  0.000  0.000  0.000  0.000  0.000  0.000
   11  0.001  0.000  0.000  0.000  0.000  0.000  0.000  0.000  0.000  0.002
   12  0.000  0.000  0.000  0.000  0.000  0.000  0.000  0.000  0.000  0.000
tot    0.002  0.006  0.987  0.000  0.000  0.000  0.000  0.000  0.000  0.995
 
band     3 # energy  -45.62301314 # occ.  1.00000000
 
ion      s     py     pz     px    dxy    dyz    dz2    dxz  x2-y2    tot
    1  0.000  0.000  0.000  0.000  0.000  0.000  0.000  0.000  0.000  0.000
    2  0.000  0.000  0.000  0.028  0.000  0.000  0.000  0.000  0.000  0.028
    3  0.000  0.000  0.000  0.965  0.000  0.000  0.000  0.000  0.000  0.966
    4  0.000  0.000  0.000  0.000  0.000  0.000  0.000  0.000  0.000  0.000
    5  0.000  0.000  0.000  0.002  0.000  0.000  0.000  0.000  0.000  0.002
    6  0.000  0.000  0.000  0.000  0.000  0.000  0.000  0.000  0.000  0.000
    7  0.000  0.000  0.000  0.000  0.000  0.000  0.000  0.000  0.000  0.000
    8  0.000  0.000  0.000  0.000  0.000  0.000  0.000  0.000  0.000  0.000
    9  0.000  0.000  0.000  0.000  0.000  0.000  0.000  0.000  0.000  0.000
   10  0.000  0.000  0.000  0.000  0.000  0.000  0.000  0.000  0.000  0.000
   11  0.000  0.000  0.000  0.000  0.000  0.000  0.000  0.000  0.000  0.000
   12  0.000  0.000  0.000  0.000  0.000  0.000  0.000  0.000  0.000  0.000
tot    0.000  0.000  0.000  0.996  0.000  0.000  0.000  0.000  0.000  0.996
 
band     4 # energy  -45.62273564 # occ.  1.00000000
 
ion      s     py     pz     px    dxy    dyz    dz2    dxz  x2-y2    tot
    1  0.000  0.000  0.000  0.000  0.000  0.000  0.000  0.000  0.000  0.000
    2  0.000  0.000  0.000  0.965  0.000  0.000  0.000  0.000  0.000  0.966
    3  0.000  0.000  0.000  0.028  0.000  0.000  0.000  0.000  0.000  0.028
    4  0.000  0.000  0.000  0.000  0.000  0.000  0.000  0.000  0.000  0.000
    5  0.000  0.000  0.000  0.000  0.000  0.000  0.000  0.000  0.000  0.000
    6  0.000  0.000  0.000  0.000  0.000  0.000  0.000  0.000  0.000  0.000
    7  0.000  0.000  0.000  0.002  0.000  0.000  0.000  0.000  0.000  0.002
    8  0.000  0.000  0.000  0.000  0.000  0.000  0.000  0.000  0.000  0.000
    9  0.000  0.000  0.000  0.000  0.000  0.000  0.000  0.000  0.000  0.000
   10  0.000  0.000  0.000  0.000  0.000  0.000  0.000  0.000  0.000  0.000
   11  0.000  0.000  0.000  0.000  0.000  0.000  0.000  0.000  0.000  0.000
   12  0.000  0.000  0.000  0.000  0.000  0.000  0.000  0.000  0.000  0.000
tot    0.000  0.000  0.000  0.996  0.000  0.000  0.000  0.000  0.000  0.996
 
band     5 # energy  -45.29981515 # occ.  1.00000000
 
ion      s     py     pz     px    dxy    dyz    dz2    dxz  x2-y2    tot
    1  0.000  0.000  0.000  0.000  0.000  0.000  0.000  0.000  0.000  0.000
    2  0.000  0.004  0.000  0.000  0.000  0.000  0.000  0.000  0.000  0.004
    3  0.000  0.983  0.005  0.000  0.000  0.000  0.000  0.000  0.000  0.989
    4  0.000  0.000  0.000  0.000  0.000  0.000  0.000  0.000  0.000  0.000
    5  0.001  0.000  0.000  0.000  0.000  0.000  0.000  0.000  0.000  0.001
    6  0.000  0.000  0.000  0.000  0.000  0.000  0.000  0.000  0.000  0.000
    7  0.000  0.000  0.000  0.000  0.000  0.000  0.000  0.000  0.000  0.000
    8  0.000  0.000  0.000  0.000  0.000  0.000  0.000  0.000  0.000  0.000
    9  0.000  0.000  0.000  0.000  0.000  0.000  0.000  0.000  0.000  0.000
   10  0.000  0.000  0.000  0.000  0.000  0.000  0.000  0.000  0.000  0.000
   11  0.000  0.000  0.000  0.000  0.000  0.000  0.000  0.000  0.000  0.000
   12  0.000  0.000  0.000  0.000  0.000  0.000  0.000  0.000  0.000  0.001
tot    0.001  0.987  0.006  0.000  0.000  0.000  0.000  0.000  0.000  0.995
 
band     6 # energy  -45.29950958 # occ.  1.00000000
 
ion      s     py     pz     px    dxy    dyz    dz2    dxz  x2-y2    tot
    1  0.000  0.000  0.000  0.000  0.000  0.000  0.000  0.000  0.000  0.000
    2  0.000  0.983  0.005  0.000  0.000  0.000  0.000  0.000  0.000  0.989
    3  0.000  0.004  0.000  0.000  0.000  0.000  0.000  0.000  0.000  0.004
    4  0.000  0.000  0.000  0.000  0.000  0.000  0.000  0.000  0.000  0.000
    5  0.000  0.000  0.000  0.000  0.000  0.000  0.000  0.000  0.000  0.000
    6  0.000  0.000  0.000  0.000  0.000  0.000  0.000  0.000  0.000  0.000
    7  0.001  0.000  0.000  0.000  0.000  0.000  0.000  0.000  0.000  0.001
    8  0.000  0.000  0.000  0.000  0.000  0.000  0.000  0.000  0.000  0.000
    9  0.000  0.000  0.000  0.000  0.000  0.000  0.000  0.000  0.000  0.000
   10  0.000  0.000  0.000  0.000  0.000  0.000  0.000  0.000  0.000  0.000
   11  0.000  0.000  0.000  0.000  0.000  0.000  0.000  0.000  0.000  0.001
   12  0.000  0.000  0.000  0.000  0.000  0.000  0.000  0.000  0.000  0.000
tot    0.001  0.987  0.006  0.000  0.000  0.000  0.000  0.000  0.000  0.995
 
band     7 # energy  -43.55532324 # occ.  1.00000000
 
ion      s     py     pz     px    dxy    dyz    dz2    dxz  x2-y2    tot
    1  0.000  0.000  0.000  0.041  0.000  0.000  0.000  0.000  0.000  0.041
    2  0.000  0.000  0.000  0.000  0.000  0.000  0.000  0.000  0.000  0.000
    3  0.000  0.000  0.000  0.000  0.000  0.000  0.000  0.000  0.000  0.000
    4  0.000  0.000  0.000  0.952  0.000  0.000  0.000  0.000  0.000  0.952
    5  0.000  0.000  0.000  0.000  0.000  0.000  0.000  0.000  0.000  0.000
    6  0.000  0.000  0.000  0.000  0.000  0.000  0.000  0.000  0.000  0.000
    7  0.000  0.000  0.000  0.000  0.000  0.000  0.000  0.000  0.000  0.000
    8  0.000  0.000  0.000  0.002  0.000  0.000  0.000  0.000  0.000  0.002
    9  0.000  0.000  0.000  0.000  0.000  0.000  0.000  0.000  0.000  0.000
   10  0.000  0.000  0.000  0.000  0.000  0.000  0.000  0.000  0.000  0.000
   11  0.000  0.000  0.000  0.000  0.000  0.000  0.000  0.000  0.000  0.000
   12  0.000  0.000  0.000  0.000  0.000  0.000  0.000  0.000  0.000  0.000
tot    0.000  0.000  0.000  0.996  0.000  0.000  0.000  0.000  0.000  0.996
 
band     8 # energy  -43.55504216 # occ.  1.00000000
 
ion      s     py     pz     px    dxy    dyz    dz2    dxz  x2-y2    tot
    1  0.000  0.000  0.000  0.952  0.000  0.000  0.000  0.000  0.000  0.952
    2  0.000  0.000  0.000  0.000  0.000  0.000  0.000  0.000  0.000  0.000
    3  0.000  0.000  0.000  0.000  0.000  0.000  0.000  0.000  0.000  0.000
    4  0.000  0.000  0.000  0.041  0.000  0.000  0.000  0.000  0.000  0.041
    5  0.000  0.000  0.000  0.000  0.000  0.000  0.000  0.000  0.000  0.000
    6  0.000  0.000  0.000  0.002  0.000  0.000  0.000  0.000  0.000  0.002
    7  0.000  0.000  0.000  0.000  0.000  0.000  0.000  0.000  0.000  0.000
    8  0.000  0.000  0.000  0.000  0.000  0.000  0.000  0.000  0.000  0.000
    9  0.000  0.000  0.000  0.000  0.000  0.000  0.000  0.000  0.000  0.000
   10  0.000  0.000  0.000  0.000  0.000  0.000  0.000  0.000  0.000  0.000
   11  0.000  0.000  0.000  0.000  0.000  0.000  0.000  0.000  0.000  0.000
   12  0.000  0.000  0.000  0.000  0.000  0.000  0.000  0.000  0.000  0.000
tot    0.000  0.000  0.000  0.996  0.000  0.000  0.000  0.000  0.000  0.996
 
band     9 # energy  -43.23593392 # occ.  1.00000000
 
ion      s     py     pz     px    dxy    dyz    dz2    dxz  x2-y2    tot
    1  0.000  0.000  0.143  0.000  0.000  0.000  0.000  0.000  0.000  0.143
    2  0.000  0.000  0.000  0.000  0.000  0.000  0.000  0.000  0.000  0.000
    3  0.000  0.000  0.000  0.000  0.000  0.000  0.000  0.000  0.000  0.000
    4  0.000  0.003  0.845  0.000  0.000  0.000  0.000  0.000  0.000  0.848
    5  0.000  0.000  0.000  0.000  0.000  0.000  0.000  0.000  0.000  0.000
    6  0.000  0.000  0.000  0.000  0.000  0.000  0.000  0.000  0.000  0.000
    7  0.000  0.000  0.000  0.000  0.000  0.000  0.000  0.000  0.000  0.000
    8  0.001  0.000  0.000  0.000  0.000  0.000  0.000  0.000  0.000  0.001
    9  0.001  0.000  0.000  0.000  0.000  0.000  0.000  0.000  0.000  0.002
   10  0.000  0.000  0.000  0.000  0.000  0.000  0.000  0.000  0.000  0.000
   11  0.000  0.000  0.000  0.000  0.000  0.000  0.000  0.000  0.000  0.000
   12  0.000  0.000  0.000  0.000  0.000  0.000  0.000  0.000  0.000  0.000
tot    0.002  0.004  0.989  0.000  0.000  0.000  0.000  0.000  0.000  0.995
 
band    10 # energy  -43.23541975 # occ.  1.00000000
 
ion      s     py     pz     px    dxy    dyz    dz2    dxz  x2-y2    tot
    1  0.000  0.003  0.845  0.000  0.000  0.000  0.000  0.000  0.000  0.848
    2  0.000  0.000  0.000  0.000  0.000  0.000  0.000  0.000  0.000  0.000
    3  0.000  0.000  0.000  0.000  0.000  0.000  0.000  0.000  0.000  0.000
    4  0.000  0.000  0.143  0.000  0.000  0.000  0.000  0.000  0.000  0.143
    5  0.000  0.000  0.000  0.000  0.000  0.000  0.000  0.000  0.000  0.000
    6  0.001  0.000  0.000  0.000  0.000  0.000  0.000  0.000  0.000  0.001
    7  0.000  0.000  0.000  0.000  0.000  0.000  0.000  0.000  0.000  0.000
    8  0.000  0.000  0.000  0.000  0.000  0.000  0.000  0.000  0.000  0.000
    9  0.000  0.000  0.000  0.000  0.000  0.000  0.000  0.000  0.000  0.000
   10  0.001  0.000  0.000  0.000  0.000  0.000  0.000  0.000  0.000  0.002
   11  0.000  0.000  0.000  0.000  0.000  0.000  0.000  0.000  0.000  0.000
   12  0.000  0.000  0.000  0.000  0.000  0.000  0.000  0.000  0.000  0.000
tot    0.002  0.004  0.989  0.000  0.000  0.000  0.000  0.000  0.000  0.995
 
band    11 # energy  -42.58382868 # occ.  1.00000000
 
ion      s     py     pz     px    dxy    dyz    dz2    dxz  x2-y2    tot
    1  0.000  0.001  0.000  0.000  0.000  0.000  0.000  0.000  0.000  0.001
    2  0.000  0.000  0.000  0.000  0.000  0.000  0.000  0.000  0.000  0.000
    3  0.000  0.000  0.000  0.000  0.000  0.000  0.000  0.000  0.000  0.000
    4  0.000  0.987  0.003  0.000  0.000  0.000  0.000  0.000  0.000  0.991
    5  0.000  0.000  0.000  0.000  0.000  0.000  0.000  0.000  0.000  0.000
    6  0.000  0.000  0.000  0.000  0.000  0.000  0.000  0.000  0.000  0.000
    7  0.000  0.000  0.000  0.000  0.000  0.000  0.000  0.000  0.000  0.000
    8  0.001  0.000  0.000  0.000  0.000  0.000  0.000  0.000  0.000  0.001
    9  0.001  0.000  0.000  0.000  0.000  0.000  0.000  0.000  0.000  0.001
   10  0.000  0.000  0.000  0.000  0.000  0.000  0.000  0.000  0.000  0.000
   11  0.000  0.000  0.000  0.000  0.000  0.000  0.000  0.000  0.000  0.001
   12  0.000  0.000  0.000  0.000  0.000  0.000  0.000  0.000  0.000  0.000
tot    0.002  0.989  0.004  0.000  0.000  0.000  0.000  0.000  0.000  0.995
 
band    12 # energy  -42.58318174 # occ.  1.00000000
 
ion      s     py     pz     px    dxy    dyz    dz2    dxz  x2-y2    tot
    1  0.000  0.987  0.003  0.000  0.000  0.000  0.000  0.000  0.000  0.991
    2  0.000  0.000  0.000  0.000  0.000  0.000  0.000  0.000  0.000  0.000
    3  0.000  0.000  0.000  0.000  0.000  0.000  0.000  0.000  0.000  0.000
    4  0.000  0.001  0.000  0.000  0.000  0.000  0.000  0.000  0.000  0.001
    5  0.000  0.000  0.000  0.000  0.000  0.000  0.000  0.000  0.000  0.000
    6  0.001  0.000  0.000  0.000  0.000  0.000  0.000  0.000  0.000  0.001
    7  0.000  0.000  0.000  0.000  0.000  0.000  0.000  0.000  0.000  0.000
    8  0.000  0.000  0.000  0.000  0.000  0.000  0.000  0.000  0.000  0.000
    9  0.000  0.000  0.000  0.000  0.000  0.000  0.000  0.000  0.000  0.000
   10  0.001  0.000  0.000  0.000  0.000  0.000  0.000  0.000  0.000  0.001
   11  0.000  0.000  0.000  0.000  0.000  0.000  0.000  0.000  0.000  0.000
   12  0.000  0.000  0.000  0.000  0.000  0.000  0.000  0.000  0.000  0.001
tot    0.002  0.989  0.004  0.000  0.000  0.000  0.000  0.000  0.000  0.995
 
band    13 # energy  -15.68146319 # occ.  1.00000000
 
ion      s     py     pz     px    dxy    dyz    dz2    dxz  x2-y2    tot
    1  0.023  0.000  0.000  0.000  0.000  0.000  0.000  0.000  0.002  0.026
    2  0.030  0.001  0.000  0.000  0.000  0.000  0.001  0.000  0.004  0.035
    3  0.030  0.001  0.000  0.000  0.000  0.000  0.001  0.000  0.004  0.035
    4  0.023  0.000  0.000  0.000  0.000  0.000  0.000  0.000  0.002  0.026
    5  0.125  0.001  0.001  0.000  0.000  0.000  0.000  0.000  0.000  0.127
    6  0.081  0.000  0.001  0.000  0.000  0.000  0.000  0.000  0.000  0.082
    7  0.125  0.001  0.001  0.000  0.000  0.000  0.000  0.000  0.000  0.127
    8  0.081  0.000  0.001  0.000  0.000  0.000  0.000  0.000  0.000  0.082
    9  0.080  0.000  0.000  0.000  0.000  0.000  0.000  0.000  0.000  0.080
   10  0.080  0.000  0.000  0.000  0.000  0.000  0.000  0.000  0.000  0.080
   11  0.069  0.000  0.000  0.000  0.000  0.000  0.000  0.000  0.000  0.069
   12  0.069  0.000  0.000  0.000  0.000  0.000  0.000  0.000  0.000  0.070
tot    0.817  0.005  0.004  0.000  0.000  0.000  0.002  0.000  0.011  0.839
 
band    14 # energy  -15.29686130 # occ.  1.00000000
 
ion      s     py     pz     px    dxy    dyz    dz2    dxz  x2-y2    tot
    1  0.013  0.000  0.001  0.000  0.000  0.000  0.000  0.000  0.000  0.015
    2  0.037  0.001  0.000  0.000  0.000  0.000  0.002  0.000  0.006  0.046
    3  0.037  0.001  0.000  0.000  0.000  0.000  0.002  0.000  0.006  0.046
    4  0.013  0.000  0.001  0.000  0.000  0.000  0.000  0.000  0.000  0.015
    5  0.169  0.001  0.002  0.000  0.000  0.000  0.000  0.000  0.000  0.172
    6  0.023  0.000  0.001  0.000  0.000  0.000  0.000  0.000  0.000  0.024
    7  0.170  0.001  0.002  0.000  0.000  0.000  0.000  0.000  0.000  0.173
    8  0.023  0.000  0.001  0.000  0.000  0.000  0.000  0.000  0.000  0.024
    9  0.116  0.000  0.000  0.000  0.000  0.000  0.000  0.000  0.000  0.117
   10  0.116  0.000  0.000  0.000  0.000  0.000  0.000  0.000  0.000  0.116
   11  0.056  0.000  0.000  0.000  0.000  0.000  0.000  0.000  0.000  0.057
   12  0.056  0.000  0.000  0.000  0.000  0.000  0.000  0.000  0.000  0.057
tot    0.829  0.005  0.009  0.000  0.000  0.001  0.004  0.000  0.014  0.862
 
band    15 # energy  -15.03215803 # occ.  1.00000000
 
ion      s     py     pz     px    dxy    dyz    dz2    dxz  x2-y2    tot
    1  0.026  0.000  0.003  0.000  0.000  0.003  0.003  0.000  0.010  0.044
    2  0.003  0.000  0.005  0.000  0.000  0.003  0.002  0.000  0.005  0.018
    3  0.003  0.000  0.005  0.000  0.000  0.003  0.002  0.000  0.005  0.019
    4  0.026  0.000  0.003  0.000  0.000  0.003  0.003  0.000  0.009  0.044
    5  0.085  0.000  0.000  0.000  0.000  0.000  0.000  0.000  0.000  0.086
    6  0.201  0.001  0.002  0.000  0.000  0.000  0.000  0.000  0.000  0.204
    7  0.085  0.000  0.000  0.000  0.000  0.000  0.000  0.000  0.000  0.085
    8  0.201  0.001  0.002  0.000  0.000  0.000  0.000  0.000  0.000  0.204
    9  0.003  0.000  0.000  0.000  0.000  0.000  0.000  0.000  0.000  0.003
   10  0.003  0.000  0.000  0.000  0.000  0.000  0.000  0.000  0.000  0.003
   11  0.082  0.000  0.000  0.000  0.000  0.000  0.000  0.000  0.000  0.083
   12  0.082  0.000  0.000  0.000  0.000  0.000  0.000  0.000  0.000  0.083
tot    0.799  0.005  0.019  0.000  0.000  0.012  0.010  0.000  0.029  0.874
 
band    16 # energy  -14.59839853 # occ.  1.00000000
 
ion      s     py     pz     px    dxy    dyz    dz2    dxz  x2-y2    tot
    1  0.014  0.000  0.003  0.000  0.000  0.005  0.004  0.000  0.010  0.035
    2  0.008  0.000  0.004  0.000  0.000  0.006  0.004  0.000  0.010  0.032
    3  0.008  0.000  0.004  0.000  0.000  0.006  0.004  0.000  0.010  0.032
    4  0.014  0.000  0.003  0.000  0.000  0.005  0.004  0.000  0.010  0.035
    5  0.140  0.001  0.001  0.000  0.000  0.000  0.000  0.000  0.000  0.142
    6  0.151  0.001  0.002  0.000  0.000  0.000  0.000  0.000  0.000  0.154
    7  0.140  0.001  0.001  0.000  0.000  0.000  0.000  0.000  0.000  0.143
    8  0.152  0.001  0.002  0.000  0.000  0.000  0.000  0.000  0.000  0.154
    9  0.028  0.000  0.000  0.000  0.000  0.000  0.000  0.000  0.000  0.028
   10  0.028  0.000  0.000  0.000  0.000  0.000  0.000  0.000  0.000  0.029
   11  0.065  0.000  0.000  0.000  0.000  0.000  0.000  0.000  0.000  0.065
   12  0.064  0.000  0.000  0.000  0.000  0.000  0.000  0.000  0.000  0.065
tot    0.814  0.005  0.019  0.000  0.000  0.021  0.016  0.000  0.039  0.915
 
band    17 # energy  -13.55804343 # occ.  1.00000000
 
ion      s     py     pz     px    dxy    dyz    dz2    dxz  x2-y2    tot
    1  0.003  0.006  0.002  0.000  0.000  0.007  0.002  0.000  0.001  0.022
    2  0.001  0.010  0.001  0.000  0.000  0.002  0.001  0.000  0.001  0.016
    3  0.001  0.010  0.001  0.000  0.000  0.002  0.001  0.000  0.001  0.016
    4  0.003  0.006  0.002  0.000  0.000  0.007  0.002  0.000  0.001  0.021
    5  0.095  0.000  0.000  0.000  0.000  0.000  0.000  0.000  0.000  0.095
    6  0.005  0.000  0.000  0.000  0.000  0.000  0.000  0.000  0.000  0.005
    7  0.095  0.000  0.000  0.000  0.000  0.000  0.000  0.000  0.000  0.095
    8  0.005  0.000  0.000  0.000  0.000  0.000  0.000  0.000  0.000  0.005
    9  0.255  0.000  0.001  0.000  0.000  0.000  0.000  0.000  0.000  0.256
   10  0.257  0.000  0.001  0.000  0.000  0.000  0.000  0.000  0.000  0.258
   11  0.046  0.000  0.000  0.000  0.000  0.000  0.000  0.000  0.000  0.046
   12  0.047  0.000  0.000  0.000  0.000  0.000  0.000  0.000  0.000  0.047
tot    0.812  0.033  0.009  0.000  0.000  0.018  0.007  0.000  0.003  0.882
 
band    18 # energy  -13.53945740 # occ.  1.00000000
 
ion      s     py     pz     px    dxy    dyz    dz2    dxz  x2-y2    tot
    1  0.001  0.003  0.004  0.000  0.000  0.010  0.003  0.000  0.003  0.025
    2  0.001  0.009  0.003  0.000  0.000  0.001  0.001  0.000  0.002  0.015
    3  0.001  0.009  0.003  0.000  0.000  0.001  0.001  0.000  0.002  0.015
    4  0.001  0.003  0.004  0.000  0.000  0.010  0.003  0.000  0.003  0.025
    5  0.111  0.000  0.000  0.000  0.000  0.000  0.000  0.000  0.000  0.111
    6  0.004  0.000  0.000  0.000  0.000  0.000  0.000  0.000  0.000  0.004
    7  0.112  0.000  0.000  0.000  0.000  0.000  0.000  0.000  0.000  0.112
    8  0.004  0.000  0.000  0.000  0.000  0.000  0.000  0.000  0.000  0.004
    9  0.267  0.000  0.001  0.000  0.000  0.000  0.000  0.000  0.000  0.269
   10  0.265  0.000  0.001  0.000  0.000  0.000  0.000  0.000  0.000  0.266
   11  0.021  0.000  0.000  0.000  0.000  0.000  0.000  0.000  0.000  0.021
   12  0.021  0.000  0.000  0.000  0.000  0.000  0.000  0.000  0.000  0.021
tot    0.810  0.026  0.015  0.000  0.000  0.022  0.007  0.000  0.009  0.889
 
band    19 # energy  -13.44759446 # occ.  1.00000000
 
ion      s     py     pz     px    dxy    dyz    dz2    dxz  x2-y2    tot
    1  0.001  0.007  0.005  0.000  0.000  0.000  0.000  0.000  0.004  0.018
    2  0.001  0.001  0.005  0.000  0.000  0.009  0.002  0.000  0.004  0.023
    3  0.001  0.001  0.006  0.000  0.000  0.010  0.002  0.000  0.004  0.024
    4  0.001  0.007  0.005  0.000  0.000  0.000  0.000  0.000  0.004  0.017
    5  0.020  0.000  0.000  0.000  0.000  0.000  0.000  0.000  0.000  0.021
    6  0.162  0.000  0.000  0.000  0.000  0.000  0.000  0.000  0.000  0.162
    7  0.019  0.000  0.000  0.000  0.000  0.000  0.000  0.000  0.000  0.019
    8  0.154  0.000  0.000  0.000  0.000  0.000  0.000  0.000  0.000  0.154
    9  0.000  0.000  0.000  0.000  0.000  0.000  0.000  0.000  0.000  0.000
   10  0.000  0.000  0.000  0.000  0.000  0.000  0.000  0.000  0.000  0.000
   11  0.220  0.000  0.001  0.000  0.000  0.000  0.000  0.000  0.000  0.222
   12  0.231  0.000  0.001  0.000  0.000  0.000  0.000  0.000  0.000  0.233
tot    0.811  0.017  0.024  0.000  0.000  0.019  0.005  0.000  0.016  0.892
 
band    20 # energy  -13.43354227 # occ.  1.00000000
 
ion      s     py     pz     px    dxy    dyz    dz2    dxz  x2-y2    tot
    1  0.000  0.004  0.008  0.000  0.000  0.001  0.000  0.000  0.005  0.018
    2  0.002  0.000  0.008  0.000  0.000  0.007  0.001  0.000  0.003  0.021
    3  0.002  0.000  0.007  0.000  0.000  0.006  0.001  0.000  0.003  0.020
    4  0.000  0.004  0.008  0.000  0.000  0.001  0.000  0.000  0.005  0.018
    5  0.025  0.000  0.000  0.000  0.000  0.000  0.000  0.000  0.000  0.025
    6  0.145  0.000  0.000  0.000  0.000  0.000  0.000  0.000  0.000  0.146
    7  0.026  0.000  0.000  0.000  0.000  0.000  0.000  0.000  0.000  0.026
    8  0.154  0.000  0.000  0.000  0.000  0.000  0.000  0.000  0.000  0.154
    9  0.022  0.000  0.000  0.000  0.000  0.000  0.000  0.000  0.000  0.022
   10  0.022  0.000  0.000  0.000  0.000  0.000  0.000  0.000  0.000  0.023
   11  0.212  0.000  0.001  0.000  0.000  0.000  0.000  0.000  0.000  0.214
   12  0.200  0.000  0.001  0.000  0.000  0.000  0.000  0.000  0.000  0.202
tot    0.811  0.009  0.035  0.000  0.000  0.014  0.002  0.000  0.016  0.887
 
band    21 # energy   -2.78567008 # occ.  1.00000000
 
ion      s     py     pz     px    dxy    dyz    dz2    dxz  x2-y2    tot
    1  0.014  0.000  0.005  0.000  0.000  0.010  0.000  0.000  0.008  0.037
    2  0.017  0.001  0.002  0.000  0.000  0.011  0.008  0.000  0.065  0.104
    3  0.017  0.001  0.002  0.000  0.000  0.011  0.008  0.000  0.065  0.104
    4  0.014  0.000  0.005  0.000  0.000  0.010  0.000  0.000  0.008  0.037
    5  0.008  0.051  0.047  0.000  0.000  0.000  0.000  0.000  0.000  0.105
    6  0.001  0.014  0.011  0.000  0.000  0.000  0.000  0.000  0.000  0.026
    7  0.008  0.051  0.047  0.000  0.000  0.000  0.000  0.000  0.000  0.105
    8  0.001  0.014  0.011  0.000  0.000  0.000  0.000  0.000  0.000  0.026
    9  0.000  0.066  0.015  0.000  0.000  0.000  0.000  0.000  0.000  0.081
   10  0.000  0.066  0.015  0.000  0.000  0.000  0.000  0.000  0.000  0.082
   11  0.000  0.025  0.001  0.000  0.000  0.000  0.000  0.000  0.000  0.026
   12  0.000  0.025  0.001  0.000  0.000  0.000  0.000  0.000  0.000  0.026
tot    0.080  0.315  0.161  0.000  0.000  0.043  0.016  0.000  0.146  0.761
 
band    22 # energy   -2.66852063 # occ.  1.00000000
 
ion      s     py     pz     px    dxy    dyz    dz2    dxz  x2-y2    tot
    1  0.003  0.003  0.003  0.000  0.000  0.014  0.009  0.000  0.012  0.043
    2  0.009  0.002  0.000  0.000  0.000  0.002  0.045  0.000  0.074  0.132
    3  0.009  0.002  0.000  0.000  0.000  0.002  0.045  0.000  0.074  0.132
    4  0.003  0.003  0.003  0.000  0.000  0.014  0.009  0.000  0.012  0.043
    5  0.009  0.045  0.072  0.000  0.000  0.000  0.000  0.000  0.000  0.126
    6  0.000  0.006  0.002  0.000  0.000  0.000  0.000  0.000  0.000  0.009
    7  0.009  0.045  0.072  0.000  0.000  0.000  0.000  0.000  0.000  0.126
    8  0.000  0.006  0.002  0.000  0.000  0.000  0.000  0.000  0.000  0.009
    9  0.000  0.061  0.036  0.000  0.000  0.000  0.000  0.000  0.000  0.098
   10  0.000  0.061  0.036  0.000  0.000  0.000  0.000  0.000  0.000  0.098
   11  0.000  0.003  0.000  0.000  0.000  0.000  0.000  0.000  0.000  0.003
   12  0.000  0.003  0.000  0.000  0.000  0.000  0.000  0.000  0.000  0.003
tot    0.043  0.240  0.229  0.000  0.000  0.032  0.107  0.000  0.171  0.821
 
band    23 # energy   -2.22086371 # occ.  1.00000000
 
ion      s     py     pz     px    dxy    dyz    dz2    dxz  x2-y2    tot
    1  0.020  0.001  0.002  0.000  0.000  0.005  0.025  0.000  0.035  0.088
    2  0.015  0.002  0.006  0.000  0.000  0.041  0.001  0.000  0.001  0.065
    3  0.015  0.002  0.006  0.000  0.000  0.042  0.001  0.000  0.001  0.066
    4  0.020  0.001  0.002  0.000  0.000  0.005  0.024  0.000  0.034  0.086
    5  0.002  0.000  0.004  0.000  0.000  0.000  0.000  0.000  0.000  0.005
    6  0.010  0.026  0.068  0.000  0.000  0.000  0.000  0.000  0.000  0.104
    7  0.002  0.000  0.004  0.000  0.000  0.000  0.000  0.000  0.000  0.006
    8  0.010  0.025  0.067  0.000  0.000  0.000  0.000  0.000  0.000  0.102
    9  0.000  0.004  0.007  0.000  0.000  0.000  0.000  0.000  0.000  0.010
   10  0.000  0.004  0.006  0.000  0.000  0.000  0.000  0.000  0.000  0.010
   11  0.000  0.080  0.056  0.000  0.000  0.000  0.000  0.000  0.000  0.137
   12  0.000  0.082  0.057  0.000  0.000  0.000  0.000  0.000  0.000  0.140
tot    0.094  0.225  0.284  0.000  0.000  0.093  0.051  0.000  0.071  0.819
 
band    24 # energy   -2.13401538 # occ.  1.00000000
 
ion      s     py     pz     px    dxy    dyz    dz2    dxz  x2-y2    tot
    1  0.004  0.007  0.000  0.000  0.000  0.002  0.027  0.000  0.044  0.083
    2  0.001  0.004  0.004  0.000  0.000  0.015  0.052  0.000  0.021  0.098
    3  0.001  0.004  0.004  0.000  0.000  0.015  0.052  0.000  0.021  0.097
    4  0.004  0.007  0.000  0.000  0.000  0.002  0.027  0.000  0.044  0.084
    5  0.003  0.004  0.017  0.000  0.000  0.000  0.000  0.000  0.000  0.024
    6  0.008  0.032  0.032  0.000  0.000  0.000  0.000  0.000  0.000  0.072
    7  0.003  0.004  0.017  0.000  0.000  0.000  0.000  0.000  0.000  0.024
    8  0.008  0.032  0.033  0.000  0.000  0.000  0.000  0.000  0.000  0.074
    9  0.000  0.010  0.021  0.000  0.000  0.000  0.000  0.000  0.000  0.031
   10  0.000  0.010  0.021  0.000  0.000  0.000  0.000  0.000  0.000  0.031
   11  0.000  0.078  0.044  0.000  0.000  0.000  0.000  0.000  0.000  0.122
   12  0.000  0.077  0.043  0.000  0.000  0.000  0.000  0.000  0.000  0.120
tot    0.033  0.269  0.236  0.000  0.000  0.034  0.159  0.000  0.130  0.859
 
band    25 # energy   -1.86134684 # occ.  1.00000000
 
ion      s     py     pz     px    dxy    dyz    dz2    dxz  x2-y2    tot
    1  0.000  0.000  0.000  0.001  0.002  0.000  0.000  0.001  0.000  0.004
    2  0.000  0.000  0.000  0.013  0.099  0.000  0.000  0.179  0.000  0.290
    3  0.000  0.000  0.000  0.009  0.067  0.000  0.000  0.120  0.000  0.196
    4  0.000  0.000  0.000  0.001  0.002  0.000  0.000  0.000  0.000  0.003
    5  0.000  0.000  0.000  0.159  0.000  0.000  0.000  0.000  0.000  0.159
    6  0.000  0.000  0.000  0.005  0.000  0.000  0.000  0.000  0.000  0.005
    7  0.000  0.000  0.000  0.236  0.000  0.000  0.000  0.000  0.000  0.236
    8  0.000  0.000  0.000  0.004  0.000  0.000  0.000  0.000  0.000  0.004
    9  0.000  0.000  0.000  0.034  0.000  0.000  0.000  0.000  0.000  0.034
   10  0.000  0.000  0.000  0.023  0.000  0.000  0.000  0.000  0.000  0.023
   11  0.000  0.000  0.000  0.000  0.000  0.000  0.000  0.000  0.000  0.000
   12  0.000  0.000  0.000  0.000  0.000  0.000  0.000  0.000  0.000  0.000
tot    0.000  0.000  0.000  0.485  0.170  0.000  0.000  0.300  0.000  0.954
 
band    26 # energy   -1.85893620 # occ.  1.00000000
 
ion      s     py     pz     px    dxy    dyz    dz2    dxz  x2-y2    tot
    1  0.000  0.000  0.000  0.000  0.000  0.000  0.000  0.006  0.000  0.006
    2  0.000  0.000  0.000  0.008  0.064  0.000  0.000  0.121  0.000  0.194
    3  0.000  0.000  0.000  0.012  0.096  0.000  0.000  0.180  0.000  0.288
    4  0.000  0.000  0.000  0.000  0.000  0.000  0.000  0.007  0.000  0.007
    5  0.000  0.000  0.000  0.233  0.000  0.000  0.000  0.000  0.000  0.233
    6  0.000  0.000  0.000  0.004  0.000  0.000  0.000  0.000  0.000  0.004
    7  0.000  0.000  0.000  0.157  0.000  0.000  0.000  0.000  0.000  0.157
    8  0.000  0.000  0.000  0.006  0.000  0.000  0.000  0.000  0.000  0.006
    9  0.000  0.000  0.000  0.023  0.000  0.000  0.000  0.000  0.000  0.023
   10  0.000  0.000  0.000  0.035  0.000  0.000  0.000  0.000  0.000  0.035
   11  0.000  0.000  0.000  0.001  0.000  0.000  0.000  0.000  0.000  0.001
   12  0.000  0.000  0.000  0.001  0.000  0.000  0.000  0.000  0.000  0.001
tot    0.000  0.000  0.000  0.481  0.160  0.000  0.000  0.315  0.000  0.955
 
band    27 # energy   -1.39706181 # occ.  1.00000000
 
ion      s     py     pz     px    dxy    dyz    dz2    dxz  x2-y2    tot
    1  0.000  0.000  0.000  0.013  0.098  0.000  0.000  0.131  0.000  0.243
    2  0.000  0.000  0.000  0.000  0.013  0.000  0.000  0.000  0.000  0.013
    3  0.000  0.000  0.000  0.000  0.013  0.000  0.000  0.000  0.000  0.013
    4  0.000  0.000  0.000  0.009  0.070  0.000  0.000  0.091  0.000  0.171
    5  0.000  0.000  0.000  0.003  0.000  0.000  0.000  0.000  0.000  0.003
    6  0.000  0.000  0.000  0.247  0.000  0.000  0.000  0.000  0.000  0.247
    7  0.000  0.000  0.000  0.004  0.000  0.000  0.000  0.000  0.000  0.004
    8  0.000  0.000  0.000  0.174  0.000  0.000  0.000  0.000  0.000  0.174