<?xml version="1.0" encoding="ISO-8859-1"?>
<modeling>
 <generator>
  <i name="program" type="string">vasp </i>
  <i name="version" type="string">5.4.4.18Apr17-6-g9f103f2a35  </i>
  <i name="subversion" type="string">(build Nov 08 2022 17:27:33) complex            parallel </i>
  <i name="platform" type="string">LinuxIFC </i>
  <i name="date" type="string">2022 11 22 </i>
  <i name="time" type="string">17:13:44 </i>
 </generator>
 <incar>
  <i type="string" name="PREC">accurate</i>
  <i type="string" name="ALGO"> Fast</i>
  <i type="int" name="ISPIN">     2</i>
  <i type="int" name="NELM">    40</i>
  <i type="int" name="IBRION">     2</i>
  <i name="EDIFF">      0.00001000</i>
  <i name="EDIFFG">     -0.03000000</i>
  <i type="int" name="NSW">   199</i>
  <i type="int" name="ISIF">     2</i>
  <i type="int" name="ISYM">     0</i>
  <i name="ENCUT">    400.00000000</i>
  <i name="ENAUG">    800.00000000</i>
  <v name="MAGMOM">     -5.00000000      5.00000000      5.00000000     -5.00000000      0.00000000      0.00000000      0.00000000      0.00000000      0.00000000      0.00000000      0.00000000      0.00000000</v>
  <i type="string" name="LREAL"> Auto</i>
  <i type="int" name="ISMEAR">     0</i>
  <i name="SIGMA">      0.01000000</i>
  <i type="int" name="LMAXMIX">     4</i>
  <i type="logical" name="LWAVE"> T  </i>
  <i type="int" name="LORBIT">    11</i>
  <i type="logical" name="LASPH"> T  </i>
  <v type="int" name="KPOINT_BSE">    -1     0     0     0</v>
  <i type="int" name="NELM">    40</i>
  <i type="string" name="GGA"> Pe</i>
  <i type="logical" name="LASPH"> T  </i>
 </incar>
 <structure name="primitive_cell" >
  <crystal>
   <varray name="basis" >
    <v>       2.91633100       0.00000000       0.00000000 </v>
    <v>      -0.00000100       4.58096600       0.00014500 </v>
    <v>       0.00000200       0.00030000       9.43439300 </v>
   </varray>
   <i name="volume">    126.03984071 </i>
   <varray name="rec_basis" >
    <v>       0.34289661       0.00000007      -0.00000007 </v>
    <v>       0.00000000       0.21829457      -0.00000694 </v>
    <v>       0.00000000      -0.00000336       0.10599516 </v>
   </varray>
  </crystal>
  <varray name="positions" >
   <v>       0.25000000       0.02126500      -0.13498600 </v>
   <v>      -0.25000000      -0.19132300      -0.21630800 </v>
   <v>       0.25000000       0.30854000      -0.28375200 </v>
   <v>      -0.25000000       0.21232300      -0.03694800 </v>
   <v>       0.25000000      -0.21232200       0.03695300 </v>
   <v>      -0.25000100      -0.02125900       0.13499200 </v>
   <v>       0.25000000      -0.28755300      -0.46307000 </v>
   <v>       0.25000000       0.19132200       0.21631000 </v>
   <v>      -0.25000000      -0.47869000      -0.36503200 </v>
   <v>      -0.25000000       0.28755100       0.46306600 </v>
   <v>      -0.25000000      -0.30854200       0.28375200 </v>
   <v>       0.25000100       0.47868900       0.36502400 </v>
  </varray>
 </structure>
 <varray name="primitive_index" >
  <v type="int" >        1 </v>
  <v type="int" >       12 </v>
  <v type="int" >       10 </v>
  <v type="int" >        6 </v>
  <v type="int" >        7 </v>
  <v type="int" >        2 </v>
  <v type="int" >        5 </v>
  <v type="int" >        9 </v>
  <v type="int" >        3 </v>
  <v type="int" >        8 </v>
  <v type="int" >       11 </v>
  <v type="int" >        4 </v>
 </varray>
 <kpoints>
  <generation param="Gamma">
   <v type="int" name="divisions">       1        1        1 </v>
   <v name="usershift">      0.00000000       0.00000000       0.00000000 </v>
   <v name="genvec1">      1.00000000       0.00000000      -0.00000000 </v>
   <v name="genvec2">      0.00000000       1.00000000       0.00000000 </v>
   <v name="genvec3">      0.00000000       0.00000000       1.00000000 </v>
   <v name="shift">      0.00000000       0.00000000       0.00000000 </v>
  </generation>
  <varray name="kpointlist" >
   <v>       0.00000000       0.00000000       0.00000000 </v>
  </varray>
  <varray name="weights" >
   <v>       1.00000000 </v>
  </varray>
 </kpoints>
 <parameters>
  <separator name="general" >
   <i type="string" name="SYSTEM">unknown system</i>
   <i type="logical" name="LCOMPAT"> F  </i>
  </separator>
  <separator name="electronic" >
   <i type="string" name="PREC">accura</i>
   <i name="ENMAX">    400.00000000</i>
   <i name="ENAUG">    800.00000000</i>
   <i name="EDIFF">      0.00001000</i>
   <i type="int" name="IALGO">    68</i>
   <i type="int" name="IWAVPR">    11</i>
   <i type="int" name="NBANDS">    60</i>
   <i name="NELECT">    100.00000000</i>
   <i type="int" name="TURBO">     0</i>
   <i type="int" name="IRESTART">     0</i>
   <i type="int" name="NREBOOT">     0</i>
   <i type="int" name="NMIN">     0</i>
   <i name="EREF">      0.00000000</i>
   <separator name="electronic smearing" >
    <i type="int" name="ISMEAR">     0</i>
    <i name="SIGMA">      0.01000000</i>
    <i name="KSPACING">      0.50000000</i>
    <i type="logical" name="KGAMMA"> T  </i>
   </separator>
   <separator name="electronic projectors" >
    <i type="logical" name="LREAL"> T  </i>
    <v name="ROPT">     -0.00025000     -0.00025000</v>
    <i type="int" name="LMAXPAW">  -100</i>
    <i type="int" name="LMAXMIX">     4</i>
    <i type="logical" name="NLSPLINE"> F  </i>
   </separator>
   <separator name="electronic startup" >
    <i type="int" name="ISTART">     0</i>
    <i type="int" name="ICHARG">     2</i>
    <i type="int" name="INIWAV">     1</i>
   </separator>
   <separator name="electronic spin" >
    <i type="int" name="ISPIN">     2</i>
    <i type="logical" name="LNONCOLLINEAR"> F  </i>
    <v name="MAGMOM">     -5.00000000      5.00000000      5.00000000     -5.00000000      0.00000000      0.00000000      0.00000000      0.00000000      0.00000000      0.00000000      0.00000000      0.00000000</v>
    <i name="NUPDOWN">     -1.00000000</i>
    <i type="logical" name="LSORBIT"> F  </i>
    <v name="SAXIS">      0.00000000      0.00000000      1.00000000</v>
    <i type="logical" name="LSPIRAL"> F  </i>
    <v name="QSPIRAL">      0.00000000      0.00000000      0.00000000</v>
    <i type="logical" name="LZEROZ"> F  </i>
   </separator>
   <separator name="electronic exchange-correlation" >
    <i type="logical" name="LASPH"> T  </i>
    <i type="logical" name="LMETAGGA"> F  </i>
   </separator>
   <separator name="electronic convergence" >
    <i type="int" name="NELM">    40</i>
    <i type="int" name="NELMDL">    -5</i>
    <i type="int" name="NELMIN">     2</i>
    <i name="ENINI">    400.00000000</i>
    <separator name="electronic convergence detail" >
     <i type="logical" name="LDIAG"> T  </i>
     <i type="logical" name="LSUBROT"> F  </i>
     <i name="WEIMIN">      0.00100000</i>
     <i name="EBREAK">      0.00000004</i>
     <i name="DEPER">      0.30000000</i>
     <i type="int" name="NRMM">     4</i>
     <i name="TIME">      0.40000000</i>
    </separator>
   </separator>
   <separator name="electronic mixer" >
    <i name="AMIX">      0.40000000</i>
    <i name="BMIX">      1.00000000</i>
    <i name="AMIN">      0.10000000</i>
    <i name="AMIX_MAG">      1.60000000</i>
    <i name="BMIX_MAG">      1.00000000</i>
    <separator name="electronic mixer details" >
     <i type="int" name="IMIX">     4</i>
     <i type="logical" name="MIXFIRST"> F  </i>
     <i type="int" name="MAXMIX">   -45</i>
     <i name="WC">    100.00000000</i>
     <i type="int" name="INIMIX">     1</i>
     <i type="int" name="MIXPRE">     1</i>
     <i type="int" name="MREMOVE">     5</i>
    </separator>
   </separator>
   <separator name="electronic dipolcorrection" >
    <i type="logical" name="LDIPOL"> F  </i>
    <i type="logical" name="LMONO"> F  </i>
    <i type="int" name="IDIPOL">     0</i>
    <i name="EPSILON">      1.00000000</i>
    <v name="DIPOL">   -100.00000000   -100.00000000   -100.00000000</v>
    <i name="EFIELD">      0.00000000</i>
   </separator>
  </separator>
  <separator name="grids" >
   <i type="int" name="NGX">    20</i>
   <i type="int" name="NGY">    30</i>
   <i type="int" name="NGZ">    64</i>
   <i type="int" name="NGXF">    40</i>
   <i type="int" name="NGYF">    60</i>
   <i type="int" name="NGZF">   128</i>
   <i type="logical" name="ADDGRID"> F  </i>
  </separator>
  <separator name="ionic" >
   <i type="int" name="NSW">   199</i>
   <i type="int" name="IBRION">     2</i>
   <i type="int" name="MDALGO">     0</i>
   <i type="int" name="ISIF">     2</i>
   <i name="PSTRESS">      0.00000000</i>
   <i name="EDIFFG">     -0.03000000</i>
   <i type="int" name="NFREE">     1</i>
   <i name="POTIM">      0.50000000</i>
   <i name="SMASS">     -3.00000000</i>
   <i name="SCALEE">      1.00000000</i>
  </separator>
  <separator name="ionic md" >
   <i name="TEBEG">      0.00010000</i>
   <i name="TEEND">      0.00010000</i>
   <i type="int" name="NBLOCK">     1</i>
   <i type="int" name="KBLOCK">   199</i>
   <i type="int" name="NPACO">   256</i>
   <i name="APACO">     16.00000000</i>
  </separator>
  <separator name="symmetry" >
   <i type="int" name="ISYM">     0</i>
   <i name="SYMPREC">      0.00001000</i>
  </separator>
  <separator name="dos" >
   <i type="int" name="LORBIT">    11</i>
   <v name="RWIGS">     -1.00000000     -1.00000000</v>
   <i type="int" name="NEDOS">   301</i>
   <i name="EMIN">     10.00000000</i>
   <i name="EMAX">    -10.00000000</i>
   <i name="EFERMI">      0.00000000</i>
  </separator>
  <separator name="writing" >
   <i type="int" name="NWRITE">     2</i>
   <i type="logical" name="LWAVE"> T  </i>
   <i type="logical" name="LDOWNSAMPLE"> F  </i>
   <i type="logical" name="LCHARG"> T  </i>
   <i type="logical" name="LPARD"> F  </i>
   <i type="logical" name="LVTOT"> F  </i>
   <i type="logical" name="LVHAR"> F  </i>
   <i type="logical" name="LELF"> F  </i>
   <i type="logical" name="LOPTICS"> F  </i>
   <v name="STM">      0.00000000      0.00000000      0.00000000      0.00000000      0.00000000      0.00000000      0.00000000</v>
  </separator>
  <separator name="performance" >
   <i type="int" name="NPAR">     4</i>
   <i type="int" name="NSIM">     4</i>
   <i type="int" name="NBLK">    -1</i>
   <i type="logical" name="LPLANE"> T  </i>
   <i type="logical" name="LSCALAPACK"> T  </i>
   <i type="logical" name="LSCAAWARE"> F  </i>
   <i type="logical" name="LSCALU"> F  </i>
   <i type="logical" name="LASYNC"> F  </i>
   <i type="logical" name="LORBITALREAL"> F  </i>
  </separator>
  <separator name="miscellaneous" >
   <i type="int" name="IDIOT">     3</i>
   <i type="int" name="ISPECIAL">     0</i>
   <i type="logical" name="LMUSIC"> F  </i>
   <v name="POMASS">     54.93800000     16.00000000</v>
   <v name="DARWINR">      0.00000000      0.00000000</v>
   <v name="DARWINV">      1.00000000      1.00000000</v>
   <i type="logical" name="LCORR"> T  </i>
  </separator>
  <i type="logical" name="GGA_COMPAT"> T  </i>
  <i type="logical" name="LBERRY"> F  </i>
  <i type="int" name="ICORELEVEL">     0</i>
  <i type="logical" name="LDAU"> F  </i>
  <i type="int" name="I_CONSTRAINED_M">     0</i>
  <separator name="electronic exchange-correlation" >
   <i type="string" name="GGA">PE</i>
   <i type="int" name="VOSKOWN">     0</i>
   <i type="logical" name="LHFCALC"> F  </i>
   <i type="string" name="PRECFOCK"></i>
   <i type="logical" name="LSYMGRAD"> F  </i>
   <i type="logical" name="LHFONE"> F  </i>
   <i type="logical" name="LRHFCALC"> F  </i>
   <i type="logical" name="LTHOMAS"> F  </i>
   <i type="logical" name="LMODELHF"> F  </i>
   <i name="ENCUT4O">     -1.00000000</i>
   <i type="int" name="EXXOEP">     0</i>
   <i type="int" name="FOURORBIT">     0</i>
   <i name="AEXX">      0.00000000</i>
   <i name="HFALPHA">      0.00000000</i>
   <i name="MCALPHA">      0.00000000</i>
   <i name="ALDAX">      1.00000000</i>
   <i name="AGGAX">      1.00000000</i>
   <i name="ALDAC">      1.00000000</i>
   <i name="AGGAC">      1.00000000</i>
   <i type="int" name="NKREDX">     1</i>
   <i type="int" name="NKREDY">     1</i>
   <i type="int" name="NKREDZ">     1</i>
   <i type="logical" name="SHIFTRED"> F  </i>
   <i type="logical" name="ODDONLY"> F  </i>
   <i type="logical" name="EVENONLY"> F  </i>
   <i type="int" name="LMAXFOCK">     0</i>
   <i type="int" name="NMAXFOCKAE">     0</i>
   <i type="logical" name="LFOCKAEDFT"> F  </i>
   <i name="HFSCREEN">      0.00000000</i>
   <i name="HFSCREENC">      0.00000000</i>
   <i type="int" name="NBANDSGWLOW">     0</i>
  </separator>
  <separator name="vdW DFT" >
   <i type="logical" name="LUSE_VDW"> F  </i>
   <i name="Zab_VDW">     -0.84910000</i>
   <i name="PARAM1">      0.12340000</i>
   <i name="PARAM2">      1.00000000</i>
   <i name="PARAM3">      0.00000000</i>
  </separator>
  <separator name="model GW" >
   <i type="int" name="MODEL_GW">     0</i>
   <i name="MODEL_EPS0">      6.30199204</i>
   <i name="MODEL_ALPHA">      1.00000000</i>
  </separator>
  <separator name="linear response parameters" >
   <i type="logical" name="LEPSILON"> F  </i>
   <i type="logical" name="LRPA"> F  </i>
   <i type="logical" name="LNABLA"> F  </i>
   <i type="logical" name="LVEL"> F  </i>
   <i type="int" name="KINTER">     0</i>
   <i name="CSHIFT">      0.10000000</i>
   <i name="OMEGAMAX">     -1.00000000</i>
   <i name="DEG_THRESHOLD">      0.00200000</i>
   <i name="RTIME">     -0.10000000</i>
   <i name="WPLASMAI">      0.00000000</i>
   <v name="DFIELD">      0.00000000      0.00000000      0.00000000</v>
   <v name="WPLASMA">      0.00000000      0.00000000      0.00000000      0.00000000      0.00000000      0.00000000      0.00000000      0.00000000      0.00000000</v>
  </separator>
  <separator name="orbital magnetization" >
   <i type="logical" name="NUCIND"> F  </i>
   <v name="MAGPOS">      0.00000000      0.00000000      0.00000000</v>
   <i type="logical" name="LNICSALL"> T  </i>
   <i type="logical" name="ORBITALMAG"> F  </i>
   <i type="logical" name="LMAGBLOCH"> F  </i>
   <i type="logical" name="LCHIMAG"> F  </i>
   <i type="logical" name="LGAUGE"> T  </i>
   <i type="int" name="MAGATOM">     0</i>
   <v name="MAGDIPOL">      0.00000000      0.00000000      0.00000000</v>
   <v name="AVECCONST">      0.00000000      0.00000000      0.00000000</v>
  </separator>
  <separator name="response functions" >
   <i type="logical" name="LADDER"> F  </i>
   <i type="logical" name="LRPAFORCE"> F  </i>
   <i type="logical" name="LFXC"> F  </i>
   <i type="logical" name="LHARTREE"> T  </i>
   <i type="int" name="IBSE">     0</i>
   <v type="int" name="KPOINT">    -1     0     0     0</v>
   <i type="logical" name="LTCTE"> F  </i>
   <i type="logical" name="LTETE"> F  </i>
   <i type="logical" name="LTRIPLET"> F  </i>
   <i type="logical" name="LFXCEPS"> F  </i>
   <i type="logical" name="LFXHEG"> F  </i>
   <i type="int" name="NATURALO">     2</i>
   <i type="logical" name="L2ORDER"> F  </i>
   <i type="logical" name="LMP2LT"> F  </i>
   <i type="logical" name="LUSEW"> F  </i>
   <i name="ENCUTGW">     -2.00000000</i>
   <i name="ENCUTGWSOFT">     -2.00000000</i>
   <i name="ENCUTLF">     -1.00000000</i>
   <i type="int" name="LMAXMP2">    -1</i>
   <i name="SCISSOR">      0.00000000</i>
   <i type="int" name="NOMEGA">     0</i>
   <i type="int" name="NOMEGAR">     0</i>
   <i type="int" name="NBANDSGW">    -1</i>
   <i type="int" name="NBANDSO">    -1</i>
   <i type="int" name="NBANDSV">    -1</i>
   <i type="int" name="NELM">    40</i>
   <i type="int" name="NELMHF">     1</i>
   <i type="int" name="DIM">     3</i>
   <i type="int" name="ANTIRES">     0</i>
   <i name="OMEGAMAX">    -30.00000000</i>
   <i name="OMEGAMIN">    -30.00000000</i>
   <i name="OMEGATL">   -200.00000000</i>
   <i type="int" name="OMEGAGRID">   140</i>
   <i name="CSHIFT">     -0.10000000</i>
   <i type="logical" name="SELFENERGY"> F  </i>
   <i type="logical" name="LSPECTRAL"> F  </i>
   <i type="logical" name="LSPECTRALGW"> F  </i>
   <i type="logical" name="LSINGLES"> F  </i>
   <i type="logical" name="LFERMIGW"> F  </i>
   <i type="logical" name="ODDONLYGW"> F  </i>
   <i type="logical" name="EVENONLYGW"> F  </i>
   <i type="int" name="NKREDLFX">     1</i>
   <i type="int" name="NKREDLFY">     1</i>
   <i type="int" name="NKREDLFZ">     1</i>
   <i type="int" name="MAXMEM">  2800</i>
   <i type="int" name="TELESCOPE">     0</i>
   <i type="int" name="TAUPAR">     1</i>
   <i type="int" name="OMEGAPAR">    -1</i>
   <i name="LAMBDA">      1.00000000</i>
  </separator>
  <separator name="External order field" >
   <i name="OFIELD_KAPPA">      0.00000000</i>
   <v name="OFIELD_K">      0.00000000      0.00000000      0.00000000</v>
   <i name="OFIELD_Q6_NEAR">      0.00000000</i>
   <i name="OFIELD_Q6_FAR">      0.00000000</i>
   <i name="OFIELD_A">      0.00000000</i>
  </separator>
 </parameters>
 <atominfo>
  <atoms>      12 </atoms>
  <types>       2 </types>
  <array name="atoms" >
   <dimension dim="1">ion</dimension>
   <field type="string">element</field>
   <field type="int">atomtype</field>
   <set>
    <rc><c>Mn</c><c>   1</c></rc>
    <rc><c>Mn</c><c>   1</c></rc>
    <rc><c>Mn</c><c>   1</c></rc>
    <rc><c>Mn</c><c>   1</c></rc>
    <rc><c>O </c><c>   2</c></rc>
    <rc><c>O </c><c>   2</c></rc>
    <rc><c>O </c><c>   2</c></rc>
    <rc><c>O </c><c>   2</c></rc>
    <rc><c>O </c><c>   2</c></rc>
    <rc><c>O </c><c>   2</c></rc>
    <rc><c>O </c><c>   2</c></rc>
    <rc><c>O </c><c>   2</c></rc>
   </set>
  </array>
  <array name="atomtypes" >
   <dimension dim="1">type</dimension>
   <field type="int">atomspertype</field>
   <field type="string">element</field>
   <field>mass</field>
   <field>valence</field>
   <field type="string">pseudopotential</field>
   <set>
    <rc><c>   4</c><c>Mn</c><c>     54.93800000</c><c>     13.00000000</c><c>  PAW_PBE Mn_pv 02Aug2007               </c></rc>
    <rc><c>   8</c><c>O </c><c>     16.00000000</c><c>      6.00000000</c><c>  PAW_PBE O 08Apr2002                   </c></rc>
   </set>
  </array>
 </atominfo>
 <structure name="initialpos" >
  <crystal>
   <varray name="basis" >
    <v>       2.91633100       0.00000000       0.00000000 </v>
    <v>      -0.00000100       4.58096600       0.00014500 </v>
    <v>       0.00000200       0.00030000       9.43439300 </v>
   </varray>
   <i name="volume">    126.03984071 </i>
   <varray name="rec_basis" >
    <v>       0.34289661       0.00000007      -0.00000007 </v>
    <v>       0.00000000       0.21829457      -0.00000694 </v>
    <v>       0.00000000      -0.00000336       0.10599516 </v>
   </varray>
  </crystal>
  <varray name="positions" >
   <v>       0.25000000       0.02126500       0.86501400 </v>
   <v>       0.74999900       0.97874100       0.13499200 </v>
   <v>       0.75000000       0.52131000       0.63496800 </v>
   <v>       0.25000100       0.47868900       0.36502400 </v>
   <v>       0.25000000       0.71244700       0.53693000 </v>
   <v>       0.75000000       0.21232300       0.96305200 </v>
   <v>       0.25000000       0.78767800       0.03695300 </v>
   <v>       0.75000000       0.28755100       0.46306600 </v>
   <v>       0.25000000       0.19132200       0.21631000 </v>
   <v>       0.25000000       0.30854000       0.71624800 </v>
   <v>       0.75000000       0.69145800       0.28375200 </v>
   <v>       0.75000000       0.80867700       0.78369200 </v>
  </varray>
 </structure>
 <calculation>
  <scstep>
   <time name="dav">    0.12    0.13</time>
   <time name="total">    0.73    0.75</time>
   <energy>
    <i name="alphaZ">    441.37612112 </i>
    <i name="ewald">  -7485.64291034 </i>
    <i name="hartreedc">  -3708.68415669 </i>
    <i name="XCdc">    504.27051180 </i>
    <i name="pawpsdc">   9348.48672290 </i>
    <i name="pawaedc">  -9564.88662345 </i>
    <i name="eentropy">     -0.00000000 </i>
    <i name="bandstr">    212.53419471 </i>
    <i name="atom">  11559.05757976 </i>
    <i name="e_fr_energy">   1306.51143980 </i>
    <i name="e_wo_entrp">   1306.51143980 </i>
    <i name="e_0_energy">   1306.51143980 </i>
   </energy>
  </scstep>
  <scstep>
   <time name="dav">    0.13    0.13</time>
   <time name="total">    0.13    0.13</time>
   <energy>
    <i name="e_fr_energy">     80.63176431 </i>
    <i name="e_wo_entrp">     80.63176431 </i>
    <i name="e_0_energy">     80.63176431 </i>
   </energy>
  </scstep>
  <scstep>
   <time name="dav">    0.12    0.12</time>
   <time name="total">    0.12    0.12</time>
   <energy>
    <i name="e_fr_energy">   -110.94144811 </i>
    <i name="e_wo_entrp">   -110.94144811 </i>
    <i name="e_0_energy">   -110.94144811 </i>
   </energy>
  </scstep>
  <scstep>
   <time name="dav">    0.10    0.10</time>
   <time name="total">    0.10    0.10</time>
   <energy>
    <i name="e_fr_energy">   -121.01694502 </i>
    <i name="e_wo_entrp">   -121.01694502 </i>
    <i name="e_0_energy">   -121.01694502 </i>
   </energy>
  </scstep>
  <scstep>
   <time name="dav">    0.09    0.09</time>
   <time name="total">    0.10    0.10</time>
   <energy>
    <i name="e_fr_energy">   -121.24635212 </i>
    <i name="e_wo_entrp">   -121.24635212 </i>
    <i name="e_0_energy">   -121.24635212 </i>
   </energy>
  </scstep>
  <scstep>
   <time name="diag">    0.01    0.01</time>
   <time name="diis">    0.06    0.06</time>
   <time name="orth">    0.00    0.00</time>
   <time name="total">    0.45    0.45</time>
   <energy>
    <i name="e_fr_energy">   -128.40063379 </i>
    <i name="e_wo_entrp">   -128.40063371 </i>
    <i name="e_0_energy">   -128.40063375 </i>
   </energy>
  </scstep>
  <scstep>
   <time name="diag">    0.01    0.01</time>
   <time name="diis">    0.05    0.05</time>
   <time name="orth">    0.00    0.00</time>
   <time name="total">    0.41    0.41</time>
   <energy>
    <i name="e_fr_energy">    -95.28350082 </i>
    <i name="e_wo_entrp">    -95.28350082 </i>
    <i name="e_0_energy">    -95.28350082 </i>
   </energy>
  </scstep>
  <scstep>
   <time name="diag">    0.02    0.02</time>
   <time name="diis">    0.08    0.08</time>
   <time name="orth">    0.00    0.00</time>
   <time name="total">    0.44    0.44</time>
   <energy>
    <i name="e_fr_energy">    -92.82975636 </i>
    <i name="e_wo_entrp">    -92.82975636 </i>
    <i name="e_0_energy">    -92.82975636 </i>
   </energy>
  </scstep>
  <scstep>
   <time name="diag">    0.02    0.02</time>
   <time name="diis">    0.09    0.09</time>
   <time name="orth">    0.00    0.00</time>
   <time name="total">    0.46    0.46</time>
   <energy>
    <i name="e_fr_energy">    -91.55483391 </i>
    <i name="e_wo_entrp">    -91.55483391 </i>
    <i name="e_0_energy">    -91.55483391 </i>
   </energy>
  </scstep>
  <scstep>
   <time name="diag">    0.02    0.02</time>
   <time name="diis">    0.05    0.05</time>
   <time name="orth">    0.00    0.00</time>
   <time name="total">    0.42    0.42</time>
   <energy>
    <i name="e_fr_energy">    -91.62148182 </i>
    <i name="e_wo_entrp">    -91.62148182 </i>
    <i name="e_0_energy">    -91.62148182 </i>
   </energy>
  </scstep>
  <scstep>
   <time name="diag">    0.01    0.01</time>
   <time name="diis">    0.05    0.05</time>
   <time name="orth">    0.00    0.00</time>
   <time name="total">    0.40    0.40</time>
   <energy>
    <i name="e_fr_energy">    -91.60418435 </i>
    <i name="e_wo_entrp">    -91.60418435 </i>
    <i name="e_0_energy">    -91.60418435 </i>
   </energy>
  </scstep>
  <scstep>
   <time name="diag">    0.01    0.01</time>
   <time name="diis">    0.05    0.05</time>
   <time name="orth">    0.00    0.00</time>
   <time name="total">    0.41    0.41</time>
   <energy>
    <i name="e_fr_energy">    -91.59838313 </i>
    <i name="e_wo_entrp">    -91.59838313 </i>
    <i name="e_0_energy">    -91.59838313 </i>
   </energy>
  </scstep>
  <scstep>
   <time name="diag">    0.01    0.02</time>
   <time name="diis">    0.04    0.08</time>
   <time name="orth">    0.00    0.00</time>
   <time name="total">    0.39    0.45</time>
   <energy>
    <i name="e_fr_energy">    -91.59562689 </i>
    <i name="e_wo_entrp">    -91.59562689 </i>
    <i name="e_0_energy">    -91.59562689 </i>
   </energy>
  </scstep>
  <scstep>
   <time name="diag">    0.02    0.02</time>
   <time name="diis">    0.05    0.05</time>
   <time name="orth">    0.00    0.00</time>
   <time name="total">    0.40    0.42</time>
   <energy>
    <i name="e_fr_energy">    -91.59546558 </i>
    <i name="e_wo_entrp">    -91.59546558 </i>
    <i name="e_0_energy">    -91.59546558 </i>
   </energy>
  </scstep>
  <scstep>
   <time name="diag">    0.01    0.01</time>
   <time name="diis">    0.04    0.04</time>
   <time name="orth">    0.00    0.00</time>
   <time name="total">    0.41    0.41</time>
   <energy>
    <i name="e_fr_energy">    -91.59539335 </i>
    <i name="e_wo_entrp">    -91.59539335 </i>
    <i name="e_0_energy">    -91.59539335 </i>
   </energy>
  </scstep>
  <scstep>
   <time name="diag">    0.01    0.01</time>
   <time name="diis">    0.04    0.04</time>
   <time name="orth">    0.00    0.00</time>
   <time name="total">    0.40    0.40</time>
   <energy>
    <i name="e_fr_energy">    -91.59537161 </i>
    <i name="e_wo_entrp">    -91.59537161 </i>
    <i name="e_0_energy">    -91.59537161 </i>
   </energy>
  </scstep>
  <scstep>
   <time name="diag">    0.02    0.02</time>
   <time name="diis">    0.06    0.06</time>
   <time name="orth">    0.00    0.00</time>
   <time name="total">    0.45    0.45</time>
   <energy>
    <i name="e_fr_energy">    -91.59538917 </i>
    <i name="e_wo_entrp">    -91.59538917 </i>
    <i name="e_0_energy">    -91.59538917 </i>
   </energy>
  </scstep>
  <scstep>
   <time name="diag">    0.01    0.01</time>
   <time name="diis">    0.03    0.03</time>
   <time name="orth">    0.00    0.00</time>
   <time name="total">    0.44    0.50</time>
   <energy>
    <i name="alphaZ">    441.37612112 </i>
    <i name="ewald">  -7485.64291034 </i>
    <i name="hartreedc">  -3608.03168589 </i>
    <i name="XCdc">    499.21867688 </i>
    <i name="pawpsdc">  11846.34779239 </i>
    <i name="pawaedc"> -12079.86359640 </i>
    <i name="eentropy">     -0.00000000 </i>
    <i name="bandstr">  -1264.05737280 </i>
    <i name="atom">  11559.05757976 </i>
    <i name="e_fr_energy">    -91.59539527 </i>
    <i name="e_wo_entrp">    -91.59539527 </i>
    <i name="e_0_energy">    -91.59539527 </i>
   </energy>
  </scstep>
  <structure>
   <crystal>
    <varray name="basis" >
     <v>       2.91633100       0.00000000       0.00000000 </v>
     <v>      -0.00000100       4.58096600       0.00014500 </v>
     <v>       0.00000200       0.00030000       9.43439300 </v>
    </varray>
    <i name="volume">    126.03984071 </i>
    <varray name="rec_basis" >
     <v>       0.34289661       0.00000007      -0.00000007 </v>
     <v>       0.00000000       0.21829457      -0.00000694 </v>
     <v>       0.00000000      -0.00000336       0.10599516 </v>
    </varray>
   </crystal>
   <varray name="positions" >
    <v>       0.25000000       0.02126500       0.86501400 </v>
    <v>       0.74999900       0.97874100       0.13499200 </v>
    <v>       0.75000000       0.52131000       0.63496800 </v>
    <v>       0.25000100       0.47868900       0.36502400 </v>
    <v>       0.25000000       0.71244700       0.53693000 </v>
    <v>       0.75000000       0.21232300       0.96305200 </v>
    <v>       0.25000000       0.78767800       0.03695300 </v>
    <v>       0.75000000       0.28755100       0.46306600 </v>
    <v>       0.25000000       0.19132200       0.21631000 </v>
    <v>       0.25000000       0.30854000       0.71624800 </v>
    <v>       0.75000000       0.69145800       0.28375200 </v>
    <v>       0.75000000       0.80867700       0.78369200 </v>
   </varray>
  </structure>
  <varray name="forces" >
   <v>      -0.00009496       0.19457647       0.25388163 </v>
   <v>      -0.00005658      -0.19440970      -0.25504286 </v>
   <v>      -0.00005964       0.19257840      -0.25475074 </v>
   <v>      -0.00005854      -0.19357253       0.25602225 </v>
   <v>       0.00004555      -1.85073701       1.57451893 </v>
   <v>       0.00008270      -1.84507097      -1.57274422 </v>
   <v>       0.00004481       1.84519652       1.57305990 </v>
   <v>       0.00001235       1.85070761      -1.57453294 </v>
   <v>      -0.00002153      -1.17714012      -1.06132463 </v>
   <v>       0.00003705       1.18497571      -1.06014983 </v>
   <v>       0.00003378      -1.18438424       1.05966881 </v>
   <v>       0.00003501       1.17727987       1.06139371 </v>
  </varray>
  <varray name="stress" >
   <v>      17.73134108      -0.00258823       0.00252443 </v>
   <v>      -0.00258816    -175.47019859       0.04643170 </v>
   <v>       0.00252488       0.04643994    -158.25087806 </v>
  </varray>
  <energy>
   <i name="e_fr_energy">    -91.59539527 </i>
   <i name="e_wo_entrp">    -91.59539527 </i>
   <i name="e_0_energy">     -0.00000000 </i>
  </energy>
  <time name="totalsc">    8.09    8.64</time>
 </calculation>
 <calculation>
  <scstep>
   <time name="dav">    0.11    0.11</time>
   <time name="total">    0.45    0.46</time>
   <energy>
    <i name="alphaZ">    441.37612112 </i>
    <i name="ewald">  -7296.86996812 </i>
    <i name="hartreedc">  -3779.44072949 </i>
    <i name="XCdc">    500.43021066 </i>
    <i name="pawpsdc">  11846.65090459 </i>
    <i name="pawaedc"> -12080.16271168 </i>
    <i name="eentropy">     -0.00000000 </i>
    <i name="bandstr">  -1281.93303045 </i>
    <i name="atom">  11559.05757976 </i>
    <i name="e_fr_energy">    -90.89162360 </i>
    <i name="e_wo_entrp">    -90.89162360 </i>
    <i name="e_0_energy">    -90.89162360 </i>
   </energy>
  </scstep>
  <scstep>
   <time name="diag">    0.02    0.02</time>
   <time name="diis">    0.05    0.05</time>
   <time name="orth">    0.00    0.00</time>
   <time name="total">    0.44    0.44</time>
   <energy>
    <i name="e_fr_energy">    -92.80105751 </i>
    <i name="e_wo_entrp">    -92.80105751 </i>
    <i name="e_0_energy">    -92.80105751 </i>
   </energy>
  </scstep>
  <scstep>
   <time name="diag">    0.01    0.01</time>
   <time name="diis">    0.06    0.06</time>
   <time name="orth">    0.00    0.00</time>
   <time name="total">    0.41    0.41</time>
   <energy>
    <i name="e_fr_energy">    -92.57798078 </i>
    <i name="e_wo_entrp">    -92.57798078 </i>
    <i name="e_0_energy">    -92.57798078 </i>
   </energy>
  </scstep>
  <scstep>
   <time name="diag">    0.02    0.02</time>
   <time name="diis">    0.05    0.05</time>
   <time name="orth">    0.00    0.00</time>
   <time name="total">    0.40    0.40</time>
   <energy>
    <i name="e_fr_energy">    -92.52519740 </i>
    <i name="e_wo_entrp">    -92.52519740 </i>
    <i name="e_0_energy">    -92.52519740 </i>
   </energy>
  </scstep>
  <scstep>
   <time name="diag">    0.01    0.01</time>
   <time name="diis">    0.04    0.04</time>
   <time name="orth">    0.00    0.00</time>
   <time name="total">    0.37    0.40</time>
   <energy>
    <i name="e_fr_energy">    -92.51958070 </i>
    <i name="e_wo_entrp">    -92.51958070 </i>
    <i name="e_0_energy">    -92.51958070 </i>
   </energy>
  </scstep>
  <scstep>
   <time name="diag">    0.02    0.02</time>
   <time name="diis">    0.06    0.06</time>
   <time name="orth">    0.00    0.00</time>
   <time name="total">    0.41    0.41</time>
   <energy>
    <i name="e_fr_energy">    -92.51993007 </i>
    <i name="e_wo_entrp">    -92.51993007 </i>
    <i name="e_0_energy">    -92.51993007 </i>
   </energy>
  </scstep>
  <scstep>
   <time name="diag">    0.02    0.02</time>
   <time name="diis">    0.04    0.04</time>
   <time name="orth">    0.00    0.00</time>
   <time name="total">    0.40    0.40</time>
   <energy>
    <i name="e_fr_energy">    -92.51892599 </i>
    <i name="e_wo_entrp">    -92.51892599 </i>
    <i name="e_0_energy">    -92.51892599 </i>
   </energy>
  </scstep>
  <scstep>
   <time name="diag">    0.02    0.02</time>
   <time name="diis">    0.08    0.08</time>
   <time name="orth">    0.00    0.00</time>
   <time name="total">    0.45    0.45</time>
   <energy>
    <i name="e_fr_energy">    -92.51880469 </i>
    <i name="e_wo_entrp">    -92.51880469 </i>
    <i name="e_0_energy">    -92.51880469 </i>
   </energy>
  </scstep>
  <scstep>
   <time name="diag">    0.02    0.02</time>
   <time name="diis">    0.05    0.05</time>
   <time name="orth">    0.00    0.00</time>
   <time name="total">    0.41    0.41</time>
   <energy>
    <i name="alphaZ">    441.37612112 </i>
    <i name="ewald">  -7296.86996812 </i>
    <i name="hartreedc">  -3788.01725867 </i>
    <i name="XCdc">    500.56880943 </i>
    <i name="pawpsdc">  12213.96400576 </i>
    <i name="pawaedc"> -12447.57914370 </i>
    <i name="eentropy">     -0.00000000 </i>
    <i name="bandstr">  -1275.01894479 </i>
    <i name="atom">  11559.05757976 </i>
    <i name="e_fr_energy">    -92.51879921 </i>
    <i name="e_wo_entrp">    -92.51879921 </i>
    <i name="e_0_energy">    -92.51879921 </i>
   </energy>
  </scstep>
  <structure>
   <crystal>
    <varray name="basis" >
     <v>       2.91633100       0.00000000       0.00000000 </v>
     <v>      -0.00000100       4.58096600       0.00014500 </v>
     <v>       0.00000200       0.00030000       9.43439300 </v>
    </varray>
    <i name="volume">    126.03984071 </i>
    <varray name="rec_basis" >
     <v>       0.34289661       0.00000007      -0.00000007 </v>
     <v>       0.00000000       0.21829457      -0.00000694 </v>
     <v>       0.00000000      -0.00000336       0.10599516 </v>
    </varray>
   </crystal>
   <varray name="positions" >
    <v>       0.24999843       0.02331402       0.86631219 </v>
    <v>       0.74999806       0.97669374       0.13368787 </v>
    <v>       0.74999901       0.52333815       0.63366530 </v>
    <v>       0.25000003       0.47665038       0.36633320 </v>
    <v>       0.25000074       0.69295616       0.54498158 </v>
    <v>       0.75000137       0.19289288       0.95501009 </v>
    <v>       0.25000074       0.80710944       0.04499652 </v>
    <v>       0.75000022       0.30704153       0.45501435 </v>
    <v>       0.24999964       0.17892576       0.21088312 </v>
    <v>       0.25000062       0.32101946       0.71082674 </v>
    <v>       0.75000055       0.67898477       0.28917080 </v>
    <v>       0.75000058       0.82107471       0.78911923 </v>
   </varray>
  </structure>
  <varray name="forces" >
   <v>       0.00011567       0.29559428      -0.37424633 </v>
   <v>       0.00009793      -0.29594519       0.37471490 </v>
   <v>       0.00009192       0.29594860       0.37468232 </v>
   <v>       0.00000737      -0.29506024      -0.37582367 </v>
   <v>      -0.00005045      -0.07005176       0.32230317 </v>
   <v>      -0.00008871      -0.06803778      -0.32261882 </v>
   <v>      -0.00006877       0.06805266       0.32143055 </v>
   <v>      -0.00000683       0.06973841      -0.32190846 </v>
   <v>      -0.00003246       0.13172123       0.01815263 </v>
   <v>      -0.00001080      -0.12944494       0.02030929 </v>
   <v>      -0.00003426       0.12828202      -0.01940637 </v>
   <v>      -0.00002060      -0.13079729      -0.01758921 </v>
  </varray>
  <varray name="stress" >
   <v>      50.40676377      -0.00030771      -0.00009718 </v>
   <v>      -0.00030740     -71.16859699      -0.02579574 </v>
   <v>      -0.00009711      -0.02579049     -75.00809804 </v>
  </varray>
  <energy>
   <i name="e_fr_energy">    -92.51879921 </i>
   <i name="e_wo_entrp">    -92.51879921 </i>
   <i name="e_0_energy">     -0.00000000 </i>
  </energy>
  <time name="totalsc">    4.70    4.78</time>
 </calculation>
 <calculation>
  <scstep>
   <time name="dav">    0.10    0.10</time>
   <time name="total">    0.44    0.45</time>
   <energy>
    <i name="alphaZ">    441.37612112 </i>
    <i name="ewald">  -7288.27789309 </i>
    <i name="hartreedc">  -3795.93731403 </i>
    <i name="XCdc">    500.63550605 </i>
    <i name="pawpsdc">  12213.67810236 </i>
    <i name="pawaedc"> -12447.29883857 </i>
    <i name="eentropy">     -0.00000000 </i>
    <i name="bandstr">  -1275.75157622 </i>
    <i name="atom">  11559.05757976 </i>
    <i name="e_fr_energy">    -92.51831263 </i>
    <i name="e_wo_entrp">    -92.51831263 </i>
    <i name="e_0_energy">    -92.51831263 </i>
   </energy>
  </scstep>
  <scstep>
   <time name="diag">    0.01    0.01</time>
   <time name="diis">    0.05    0.05</time>
   <time name="orth">    0.00    0.00</time>
   <time name="total">    0.40    0.40</time>
   <energy>
    <i name="e_fr_energy">    -92.52089433 </i>
    <i name="e_wo_entrp">    -92.52089433 </i>
    <i name="e_0_energy">    -92.52089433 </i>
   </energy>
  </scstep>
  <scstep>
   <time name="diag">    0.02    0.02</time>
   <time name="diis">    0.07    0.07</time>
   <time name="orth">    0.00    0.00</time>
   <time name="total">    0.43    0.43</time>
   <energy>
    <i name="e_fr_energy">    -92.52065127 </i>
    <i name="e_wo_entrp">    -92.52065127 </i>
    <i name="e_0_energy">    -92.52065127 </i>
   </energy>
  </scstep>
  <scstep>
   <time name="diag">    0.01    0.01</time>
   <time name="diis">    0.04    0.04</time>
   <time name="orth">    0.00    0.00</time>
   <time name="total">    0.40    0.40</time>
   <energy>
    <i name="e_fr_energy">    -92.52060459 </i>
    <i name="e_wo_entrp">    -92.52060459 </i>
    <i name="e_0_energy">    -92.52060459 </i>
   </energy>
  </scstep>
  <scstep>
   <time name="diag">    0.01    0.01</time>
   <time name="diis">    0.04    0.04</time>
   <time name="orth">    0.00    0.00</time>
   <time name="total">    0.40    0.40</time>
   <energy>
    <i name="e_fr_energy">    -92.52059926 </i>
    <i name="e_wo_entrp">    -92.52059926 </i>
    <i name="e_0_energy">    -92.52059926 </i>
   </energy>
  </scstep>
  <scstep>
   <time name="diag">    0.01    0.01</time>
   <time name="diis">    0.03    0.03</time>
   <time name="orth">    0.00    0.00</time>
   <time name="total">    0.38    0.38</time>
   <energy>
    <i name="alphaZ">    441.37612112 </i>
    <i name="ewald">  -7288.27789309 </i>
    <i name="hartreedc">  -3796.34165574 </i>
    <i name="XCdc">    500.63972775 </i>
    <i name="pawpsdc">  12232.63866962 </i>
    <i name="pawaedc"> -12466.26912807 </i>
    <i name="eentropy">     -0.00000000 </i>
    <i name="bandstr">  -1275.34401316 </i>
    <i name="atom">  11559.05757976 </i>
    <i name="e_fr_energy">    -92.52059182 </i>
    <i name="e_wo_entrp">    -92.52059182 </i>
    <i name="e_0_energy">    -92.52059182 </i>
   </energy>
  </scstep>
  <structure>
   <crystal>
    <varray name="basis" >
     <v>       2.91633100       0.00000000       0.00000000 </v>
     <v>      -0.00000100       4.58096600       0.00014500 </v>
     <v>       0.00000200       0.00030000       9.43439300 </v>
    </varray>
    <i name="volume">    126.03984071 </i>
    <varray name="rec_basis" >
     <v>       0.34289661       0.00000007      -0.00000007 </v>
     <v>       0.00000000       0.21829457      -0.00000694 </v>
     <v>       0.00000000      -0.00000336       0.10599516 </v>
    </varray>
   </crystal>
   <varray name="positions" >
    <v>       0.24999836       0.02339994       0.86636662 </v>
    <v>       0.74999803       0.97660789       0.13363319 </v>
    <v>       0.74999897       0.52342319       0.63361068 </v>
    <v>       0.24999999       0.47656490       0.36638809 </v>
    <v>       0.25000077       0.69213889       0.54531919 </v>
    <v>       0.75000142       0.19207816       0.95467289 </v>
    <v>       0.25000077       0.80792422       0.04533380 </v>
    <v>       0.75000023       0.30785879       0.45467673 </v>
    <v>       0.24999963       0.17840598       0.21065557 </v>
    <v>       0.25000065       0.32154274       0.71059943 </v>
    <v>       0.75000057       0.67846175       0.28939801 </v>
    <v>       0.75000060       0.82159455       0.78934680 </v>
   </varray>
  </structure>
  <varray name="forces" >
   <v>       0.00013818       0.29810692      -0.40309355 </v>
   <v>       0.00010383      -0.29885450       0.40345413 </v>
   <v>       0.00006942       0.29886264       0.40335871 </v>
   <v>      -0.00000507      -0.29752687      -0.40511956 </v>
   <v>      -0.00003795       0.02341881       0.25608614 </v>
   <v>      -0.00009432       0.02544880      -0.25516574 </v>
   <v>      -0.00007923      -0.02513386       0.25530876 </v>
   <v>      -0.00000114      -0.02407279      -0.25431529 </v>
   <v>      -0.00001868       0.19702826       0.07076808 </v>
   <v>      -0.00002536      -0.19508951       0.07305297 </v>
   <v>      -0.00001361       0.19511888      -0.07312200 </v>
   <v>      -0.00003605      -0.19730678      -0.07121265 </v>
  </varray>
  <varray name="stress" >
   <v>      52.28331385      -0.00021498      -0.00000646 </v>
   <v>      -0.00021453     -66.78681438      -0.02843461 </v>
   <v>      -0.00000604      -0.02842981     -71.12135712 </v>
  </varray>
  <energy>
   <i name="e_fr_energy">    -92.52059182 </i>
   <i name="e_wo_entrp">    -92.52059182 </i>
   <i name="e_0_energy">     -0.00000000 </i>
  </energy>
  <time name="totalsc">    3.31    3.35</time>
 </calculation>
 <calculation>
  <scstep>
   <time name="dav">    0.10    0.10</time>
   <time name="total">    0.46    0.46</time>
   <energy>
    <i name="alphaZ">    441.37612112 </i>
    <i name="ewald">  -7297.61363325 </i>
    <i name="hartreedc">  -3787.69146987 </i>
    <i name="XCdc">    500.63567204 </i>
    <i name="pawpsdc">  12232.67396155 </i>
    <i name="pawaedc"> -12466.30639312 </i>
    <i name="eentropy">     -0.00000000 </i>
    <i name="bandstr">  -1274.23223051 </i>
    <i name="atom">  11559.05757976 </i>
    <i name="e_fr_energy">    -92.10039227 </i>
    <i name="e_wo_entrp">    -92.10039227 </i>
    <i name="e_0_energy">    -92.10039227 </i>
   </energy>
  </scstep>
  <scstep>
   <time name="diag">    0.01    0.01</time>
   <time name="diis">    0.05    0.05</time>
   <time name="orth">    0.00    0.00</time>
   <time name="total">    0.44    0.44</time>
   <energy>
    <i name="e_fr_energy">    -92.57750189 </i>
    <i name="e_wo_entrp">    -92.57750189 </i>
    <i name="e_0_energy">    -92.57750189 </i>
   </energy>
  </scstep>
  <scstep>
   <time name="diag">    0.01    0.01</time>
   <time name="diis">    0.05    0.05</time>
   <time name="orth">    0.00    0.00</time>
   <time name="total">    0.42    0.42</time>
   <energy>
    <i name="e_fr_energy">    -92.59425461 </i>
    <i name="e_wo_entrp">    -92.59425461 </i>
    <i name="e_0_energy">    -92.59425461 </i>
   </energy>
  </scstep>
  <scstep>
   <time name="diag">    0.01    0.01</time>
   <time name="diis">    0.05    0.05</time>
   <time name="orth">    0.00    0.00</time>
   <time name="total">    0.44    0.44</time>
   <energy>
    <i name="e_fr_energy">    -92.59238744 </i>
    <i name="e_wo_entrp">    -92.59238744 </i>
    <i name="e_0_energy">    -92.59238744 </i>
   </energy>
  </scstep>
  <scstep>
   <time name="diag">    0.01    0.01</time>
   <time name="diis">    0.04    0.04</time>
   <time name="orth">    0.00    0.00</time>
   <time name="total">    0.40    0.40</time>
   <energy>
    <i name="e_fr_energy">    -92.59112949 </i>
    <i name="e_wo_entrp">    -92.59112949 </i>
    <i name="e_0_energy">    -92.59112949 </i>
   </energy>
  </scstep>
  <scstep>
   <time name="diag">    0.01    0.01</time>
   <time name="diis">    0.04    0.04</time>
   <time name="orth">    0.00    0.00</time>
   <time name="total">    0.43    0.43</time>
   <energy>
    <i name="e_fr_energy">    -92.59066828 </i>
    <i name="e_wo_entrp">    -92.59066828 </i>
    <i name="e_0_energy">    -92.59066828 </i>
   </energy>
  </scstep>
  <scstep>
   <time name="diag">    0.01    0.01</time>
   <time name="diis">    0.05    0.05</time>
   <time name="orth">    0.00    0.00</time>
   <time name="total">    0.43    0.43</time>
   <energy>
    <i name="e_fr_energy">    -92.59066665 </i>
    <i name="e_wo_entrp">    -92.59066665 </i>
    <i name="e_0_energy">    -92.59066665 </i>
   </energy>
  </scstep>
  <scstep>
   <time name="diag">    0.02    0.02</time>
   <time name="diis">    0.05    0.05</time>
   <time name="orth">    0.00    0.00</time>
   <time name="total">    0.41    0.41</time>
   <energy>
    <i name="alphaZ">    441.37612112 </i>
    <i name="ewald">  -7297.61363325 </i>
    <i name="hartreedc">  -3788.26547281 </i>
    <i name="XCdc">    500.58056836 </i>
    <i name="pawpsdc">  12229.87142678 </i>
    <i name="pawaedc"> -12463.35372019 </i>
    <i name="eentropy">     -0.00000000 </i>
    <i name="bandstr">  -1274.24353531 </i>
    <i name="atom">  11559.05757976 </i>
    <i name="e_fr_energy">    -92.59066555 </i>
    <i name="e_wo_entrp">    -92.59066555 </i>
    <i name="e_0_energy">    -92.59066555 </i>
   </energy>
  </scstep>
  <structure>
   <crystal>
    <varray name="basis" >
     <v>       2.91633100       0.00000000       0.00000000 </v>
     <v>      -0.00000100       4.58096600       0.00014500 </v>
     <v>       0.00000200       0.00030000       9.43439300 </v>
    </varray>
    <i name="volume">    126.03984071 </i>
    <varray name="rec_basis" >
     <v>       0.34289661       0.00000007      -0.00000007 </v>
     <v>       0.00000000       0.21829457      -0.00000694 </v>
     <v>       0.00000000      -0.00000336       0.10599516 </v>
    </varray>
   </crystal>
   <varray name="positions" >
    <v>       0.25000060       0.02665274       0.86434316 </v>
    <v>       0.74999971       0.97334723       0.13565826 </v>
    <v>       0.75000009       0.52668286       0.63563522 </v>
    <v>       0.24999986       0.47331897       0.36435475 </v>
    <v>       0.25000017       0.69156049       0.54698130 </v>
    <v>       0.74999991       0.19152406       0.95301593 </v>
    <v>       0.24999948       0.80848172       0.04699156 </v>
    <v>       0.75000022       0.30843023       0.45302375 </v>
    <v>       0.24999930       0.17997230       0.21079017 </v>
    <v>       0.25000025       0.32000049       0.71074612 </v>
    <v>       0.75000037       0.68000458       0.28925086 </v>
    <v>       0.75000003       0.82002534       0.78920992 </v>
   </varray>
  </structure>
  <varray name="forces" >
   <v>      -0.00005925       0.49965873      -0.15543166 </v>
   <v>      -0.00003824      -0.49863562       0.15349598 </v>
   <v>       0.00002923       0.49848244       0.15572457 </v>
   <v>       0.00001081      -0.49940280      -0.15397972 </v>
   <v>       0.00001516       0.00312452       0.29911641 </v>
   <v>       0.00003356       0.00264899      -0.30061487 </v>
   <v>       0.00000626      -0.00359446       0.30022143 </v>
   <v>      -0.00002129      -0.00205317      -0.30084056 </v>
   <v>       0.00003786       0.32730558       0.12402918 </v>
   <v>      -0.00001685      -0.32688698       0.12612569 </v>
   <v>       0.00000063       0.32584782      -0.12504516 </v>
   <v>       0.00000212      -0.32649506      -0.12280130 </v>
  </varray>
  <varray name="stress" >
   <v>      51.63981338       0.00264057      -0.00020060 </v>
   <v>       0.00264128     -66.31544539      -0.04365578 </v>
   <v>      -0.00020001      -0.04365270     -82.66222164 </v>
  </varray>
  <energy>
   <i name="e_fr_energy">    -92.59066555 </i>
   <i name="e_wo_entrp">    -92.59066555 </i>
   <i name="e_0_energy">     -0.00000000 </i>
  </energy>
  <time name="totalsc">    4.28    4.42</time>
 </calculation>
 <calculation>
  <scstep>
   <time name="dav">    0.12    0.12</time>
   <time name="total">    0.56    0.57</time>
   <energy>
    <i name="alphaZ">    441.37612112 </i>
    <i name="ewald">  -7305.28314749 </i>
    <i name="hartreedc">  -3781.12948645 </i>
    <i name="XCdc">    500.81762347 </i>
    <i name="pawpsdc">  12228.97413607 </i>
    <i name="pawaedc"> -12462.45617900 </i>
    <i name="eentropy">     -0.00000000 </i>
    <i name="bandstr">  -1269.64894150 </i>
    <i name="atom">  11559.05757976 </i>
    <i name="e_fr_energy">    -88.29229403 </i>
    <i name="e_wo_entrp">    -88.29229403 </i>
    <i name="e_0_energy">    -88.29229403 </i>
   </energy>
  </scstep>
  <scstep>
   <time name="diag">    0.01    0.01</time>
   <time name="diis">    0.05    0.05</time>
   <time name="orth">    0.00    0.00</time>
   <time name="total">    0.40    0.41</time>
   <energy>
    <i name="e_fr_energy">    -92.54092290 </i>
    <i name="e_wo_entrp">    -92.54092290 </i>
    <i name="e_0_energy">    -92.54092290 </i>
   </energy>
  </scstep>
  <scstep>
   <time name="diag">    0.01    0.02</time>
   <time name="diis">    0.06    0.06</time>
   <time name="orth">    0.00    0.00</time>
   <time name="total">    0.41    0.41</time>
   <energy>
    <i name="e_fr_energy">    -92.85545262 </i>
    <i name="e_wo_entrp">    -92.85545262 </i>
    <i name="e_0_energy">    -92.85545262 </i>
   </energy>
  </scstep>
  <scstep>
   <time name="diag">    0.01    0.01</time>
   <time name="diis">    0.06    0.06</time>
   <time name="orth">    0.00    0.00</time>
   <time name="total">    0.42    0.42</time>
   <energy>
    <i name="e_fr_energy">    -92.83134005 </i>
    <i name="e_wo_entrp">    -92.83134005 </i>
    <i name="e_0_energy">    -92.83134005 </i>
   </energy>
  </scstep>
  <scstep>
   <time name="diag">    0.02    0.02</time>
   <time name="diis">    0.08    0.08</time>
   <time name="orth">    0.00    0.00</time>
   <time name="total">    0.45    0.45</time>
   <energy>
    <i name="e_fr_energy">    -92.81572272 </i>
    <i name="e_wo_entrp">    -92.81572272 </i>
    <i name="e_0_energy">    -92.81572272 </i>
   </energy>
  </scstep>
  <scstep>
   <time name="diag">    0.01    0.01</time>
   <time name="diis">    0.05    0.05</time>
   <time name="orth">    0.00    0.00</time>
   <time name="total">    0.41    0.41</time>
   <energy>
    <i name="e_fr_energy">    -92.81436335 </i>
    <i name="e_wo_entrp">    -92.81436335 </i>
    <i name="e_0_energy">    -92.81436335 </i>
   </energy>
  </scstep>
  <scstep>
   <time name="diag">    0.01    0.01</time>
   <time name="diis">    0.05    0.05</time>
   <time name="orth">    0.00    0.00</time>
   <time name="total">    0.43    0.43</time>
   <energy>
    <i name="e_fr_energy">    -92.81448825 </i>
    <i name="e_wo_entrp">    -92.81448825 </i>
    <i name="e_0_energy">    -92.81448825 </i>
   </energy>
  </scstep>
  <scstep>
   <time name="diag">    0.04    0.04</time>
   <time name="diis">    0.10    0.10</time>
   <time name="orth">    0.00    0.00</time>
   <time name="total">    0.87    0.87</time>
   <energy>
    <i name="e_fr_energy">    -92.81441076 </i>
    <i name="e_wo_entrp">    -92.81441076 </i>
    <i name="e_0_energy">    -92.81441076 </i>
   </energy>
  </scstep>
  <scstep>
   <time name="diag">    0.02    0.02</time>
   <time name="diis">    0.05    0.05</time>
   <time name="orth">    0.00    0.00</time>
   <time name="total">    0.50    0.50</time>
   <energy>
    <i name="e_fr_energy">    -92.81438250 </i>
    <i name="e_wo_entrp">    -92.81438250 </i>
    <i name="e_0_energy">    -92.81438250 </i>
   </energy>
  </scstep>
  <scstep>
   <time name="diag">    0.01    0.01</time>
   <time name="diis">    0.04    0.04</time>
   <time name="orth">    0.00    0.00</time>
   <time name="total">    0.38    0.38</time>
   <energy>
    <i name="alphaZ">    441.37612112 </i>
    <i name="ewald">  -7305.28314749 </i>
    <i name="hartreedc">  -3783.86816048 </i>
    <i name="XCdc">    500.50663001 </i>
    <i name="pawpsdc">  12285.80632379 </i>
    <i name="pawaedc"> -12518.71599789 </i>
    <i name="eentropy">     -0.00000000 </i>
    <i name="bandstr">  -1271.69372705 </i>
    <i name="atom">  11559.05757976 </i>
    <i name="e_fr_energy">    -92.81437822 </i>
    <i name="e_wo_entrp">    -92.81437822 </i>
    <i name="e_0_energy">    -92.81437822 </i>
   </energy>
  </scstep>
  <structure>
   <crystal>
    <varray name="basis" >
     <v>       2.91633100       0.00000000       0.00000000 </v>
     <v>      -0.00000100       4.58096600       0.00014500 </v>
     <v>       0.00000200       0.00030000       9.43439300 </v>
    </varray>
    <i name="volume">    126.03984071 </i>
    <varray name="rec_basis" >
     <v>       0.34289661       0.00000007      -0.00000007 </v>
     <v>       0.00000000       0.21829457      -0.00000694 </v>
     <v>       0.00000000      -0.00000336       0.10599516 </v>
    </varray>
   </crystal>
   <varray name="positions" >
    <v>       0.25000733       0.03641115       0.85827276 </v>
    <v>       0.75000478       0.96356523       0.14173348 </v>
    <v>       0.75000344       0.53646187       0.64170886 </v>
    <v>       0.24999949       0.46358119       0.35825470 </v>
    <v>       0.24999836       0.68982527       0.55196762 </v>
    <v>       0.74999537       0.18986177       0.94804505 </v>
    <v>       0.24999561       0.81015421       0.05196485 </v>
    <v>       0.75000019       0.31014457       0.44806482 </v>
    <v>       0.24999832       0.18467126       0.21119399 </v>
    <v>       0.24999906       0.31537374       0.71118619 </v>
    <v>       0.74999976       0.68463305       0.28880940 </v>
    <v>       0.74999829       0.81531769       0.78879926 </v>
   </varray>
  </structure>
  <varray name="forces" >
   <v>      -0.00019629       0.96740093       0.49424824 </v>
   <v>      -0.00086685      -0.96390721      -0.50009315 </v>
   <v>       0.00004232       0.96231395      -0.49214375 </v>
   <v>      -0.00017316      -0.96920217       0.50301389 </v>
   <v>       0.00017500       0.03199314       0.68456673 </v>
   <v>       0.00040437       0.02398348      -0.69098264 </v>
   <v>       0.00030115      -0.02752838       0.69068757 </v>
   <v>      -0.00007498      -0.02523282      -0.69465888 </v>
   <v>       0.00015347       0.52080046       0.13157733 </v>
   <v>       0.00007765      -0.52534122       0.13363871 </v>
   <v>      -0.00002698       0.52284368      -0.13142165 </v>
   <v>       0.00018430      -0.51812385      -0.12843239 </v>
  </varray>
  <varray name="stress" >
   <v>      41.47894791       0.00028834      -0.00090094 </v>
   <v>       0.00028844     -51.49752251      -0.08150471 </v>
   <v>      -0.00090113      -0.08150393     -96.20368088 </v>
  </varray>
  <energy>
   <i name="e_fr_energy">    -92.81437822 </i>
   <i name="e_wo_entrp">    -92.81437822 </i>
   <i name="e_0_energy">     -0.00000000 </i>
  </energy>
  <time name="totalsc">    5.68    5.76</time>
 </calculation>
 <calculation>
  <scstep>
   <time name="dav">    0.11    0.11</time>
   <time name="total">    0.48    0.49</time>
   <energy>
    <i name="alphaZ">    441.37612112 </i>
    <i name="ewald">  -7229.30513651 </i>
    <i name="hartreedc">  -3852.72690569 </i>
    <i name="XCdc">    501.95171743 </i>
    <i name="pawpsdc">  12285.11980163 </i>
    <i name="pawaedc"> -12518.02468393 </i>
    <i name="eentropy">     -0.00000000 </i>
    <i name="bandstr">  -1262.28387910 </i>
    <i name="atom">  11559.05757976 </i>
    <i name="e_fr_energy">    -74.83538528 </i>
    <i name="e_wo_entrp">    -74.83538528 </i>
    <i name="e_0_energy">    -74.83538528 </i>
   </energy>
  </scstep>
  <scstep>
   <time name="diag">    0.01    0.01</time>
   <time name="diis">    0.05    0.05</time>
   <time name="orth">    0.00    0.00</time>
   <time name="total">    0.40    0.40</time>
   <energy>
    <i name="e_fr_energy">    -94.04977002 </i>
    <i name="e_wo_entrp">    -94.04977002 </i>
    <i name="e_0_energy">    -94.04977002 </i>
   </energy>
  </scstep>
  <scstep>
   <time name="diag">    0.02    0.02</time>
   <time name="diis">    0.05    0.05</time>
   <time name="orth">    0.00    0.00</time>
   <time name="total">    0.40    0.43</time>
   <energy>
    <i name="e_fr_energy">    -93.12797081 </i>
    <i name="e_wo_entrp">    -93.12797081 </i>
    <i name="e_0_energy">    -93.12797081 </i>
   </energy>
  </scstep>
  <scstep>
   <time name="diag">    0.01    0.01</time>
   <time name="diis">    0.06    0.06</time>
   <time name="orth">    0.00    0.00</time>
   <time name="total">    0.41    0.41</time>
   <energy>
    <i name="e_fr_energy">    -93.07438176 </i>
    <i name="e_wo_entrp">    -93.07438176 </i>
    <i name="e_0_energy">    -93.07438176 </i>
   </energy>
  </scstep>
  <scstep>
   <time name="diag">    0.01    0.01</time>
   <time name="diis">    0.05    0.05</time>
   <time name="orth">    0.00    0.00</time>
   <time name="total">    0.39    0.40</time>
   <energy>
    <i name="e_fr_energy">    -93.02961997 </i>
    <i name="e_wo_entrp">    -93.02961997 </i>
    <i name="e_0_energy">    -93.02961997 </i>
   </energy>
  </scstep>
  <scstep>
   <time name="diag">    0.01    0.01</time>
   <time name="diis">    0.04    0.04</time>
   <time name="orth">    0.00    0.00</time>
   <time name="total">    0.39    0.39</time>
   <energy>
    <i name="e_fr_energy">    -93.03278935 </i>
    <i name="e_wo_entrp">    -93.03278935 </i>
    <i name="e_0_energy">    -93.03278935 </i>
   </energy>
  </scstep>
  <scstep>
   <time name="diag">    0.01    0.01</time>
   <time name="diis">    0.05    0.05</time>
   <time name="orth">    0.00    0.00</time>
   <time name="total">    0.40    0.40</time>
   <energy>
    <i name="e_fr_energy">    -93.02830281 </i>
    <i name="e_wo_entrp">    -93.02830281 </i>
    <i name="e_0_energy">    -93.02830281 </i>
   </energy>
  </scstep>
  <scstep>
   <time name="diag">    0.01    0.01</time>
   <time name="diis">    0.05    0.05</time>
   <time name="orth">    0.00    0.00</time>
   <time name="total">    0.40    0.40</time>
   <energy>
    <i name="e_fr_energy">    -93.02616316 </i>
    <i name="e_wo_entrp">    -93.02616316 </i>
    <i name="e_0_energy">    -93.02616316 </i>
   </energy>
  </scstep>
  <scstep>
   <time name="diag">    0.03    0.03</time>
   <time name="diis">    0.13    0.13</time>
   <time name="orth">    0.00    0.00</time>
   <time name="total">    0.51    0.51</time>
   <energy>
    <i name="e_fr_energy">    -93.02596930 </i>
    <i name="e_wo_entrp">    -93.02596930 </i>
    <i name="e_0_energy">    -93.02596930 </i>
   </energy>
  </scstep>
  <scstep>
   <time name="diag">    0.03    0.03</time>
   <time name="diis">    0.09    0.09</time>
   <time name="orth">    0.00    0.00</time>
   <time name="total">    0.48    0.48</time>
   <energy>
    <i name="e_fr_energy">    -93.02588010 </i>
    <i name="e_wo_entrp">    -93.02588010 </i>
    <i name="e_0_energy">    -93.02588010 </i>
   </energy>
  </scstep>
  <scstep>
   <time name="diag">    0.02    0.02</time>
   <time name="diis">    0.08    0.08</time>
   <time name="orth">    0.00    0.00</time>
   <time name="total">    0.46    0.46</time>
   <energy>
    <i name="e_fr_energy">    -93.02588546 </i>
    <i name="e_wo_entrp">    -93.02588546 </i>
    <i name="e_0_energy">    -93.02588546 </i>
   </energy>
  </scstep>
  <scstep>
   <time name="diag">    0.02    0.02</time>
   <time name="diis">    0.03    0.03</time>
   <time name="orth">    0.00    0.00</time>
   <time name="total">    0.41    0.41</time>
   <energy>
    <i name="e_fr_energy">    -93.02586662 </i>
    <i name="e_wo_entrp">    -93.02586662 </i>
    <i name="e_0_energy">    -93.02586662 </i>
   </energy>
  </scstep>
  <scstep>
   <time name="diag">    0.02    0.02</time>
   <time name="diis">    0.03    0.03</time>
   <time name="orth">    0.00    0.00</time>
   <time name="total">    0.38    0.38</time>
   <energy>
    <i name="alphaZ">    441.37612112 </i>
    <i name="ewald">  -7229.30513651 </i>
    <i name="hartreedc">  -3863.03876658 </i>
    <i name="XCdc">    500.93819597 </i>
    <i name="pawpsdc">  12727.38704438 </i>
    <i name="pawaedc"> -12959.23366910 </i>
    <i name="eentropy">     -0.00000000 </i>
    <i name="bandstr">  -1270.20723512 </i>
    <i name="atom">  11559.05757976 </i>
    <i name="e_fr_energy">    -93.02586607 </i>
    <i name="e_wo_entrp">    -93.02586607 </i>
    <i name="e_0_energy">    -93.02586607 </i>
   </energy>
  </scstep>
  <structure>
   <crystal>
    <varray name="basis" >
     <v>       2.91633100       0.00000000       0.00000000 </v>
     <v>      -0.00000100       4.58096600       0.00014500 </v>
     <v>       0.00000200       0.00030000       9.43439300 </v>
    </varray>
    <i name="volume">    126.03984071 </i>
    <varray name="rec_basis" >
     <v>       0.34289661       0.00000007      -0.00000007 </v>
     <v>       0.00000000       0.21829457      -0.00000694 </v>
     <v>       0.00000000      -0.00000336       0.10599516 </v>
    </varray>
   </crystal>
   <varray name="positions" >
    <v>       0.25002077       0.05592796       0.84613197 </v>
    <v>       0.75001492       0.94400123       0.15388391 </v>
    <v>       0.75001013       0.55601988       0.65385612 </v>
    <v>       0.24999873       0.44410562       0.34605462 </v>
    <v>       0.24999475       0.68635484       0.56194026 </v>
    <v>       0.74998628       0.18653717       0.93810330 </v>
    <v>       0.24998786       0.81349921       0.06191144 </v>
    <v>       0.75000014       0.31357325       0.43814695 </v>
    <v>       0.24999637       0.19406918       0.21200164 </v>
    <v>       0.24999667       0.30612025       0.71206634 </v>
    <v>       0.74999855       0.69389000       0.28792649 </v>
    <v>       0.74999483       0.80590240       0.78797796 </v>
   </varray>
  </structure>
  <varray name="forces" >
   <v>      -0.00192387       0.31163668       2.31946368 </v>
   <v>      -0.00162286      -0.29254820      -2.33468652 </v>
   <v>      -0.00112425       0.28756641      -2.31354783 </v>
   <v>      -0.00006730      -0.31238877       2.34336485 </v>
   <v>       0.00067502       0.25508860       1.57384478 </v>
   <v>       0.00146742       0.22975975      -1.59112822 </v>
   <v>       0.00118487      -0.23797775       1.59034895 </v>
   <v>      -0.00006257      -0.23429409      -1.60366427 </v>
   <v>       0.00039142      -0.40174482      -0.83513805 </v>
   <v>       0.00038904       0.38137345      -0.82854353 </v>
   <v>       0.00007272      -0.39267880       0.83845494 </v>
   <v>       0.00062036       0.40620753       0.84123123 </v>
  </varray>
  <varray name="stress" >
   <v>      -7.36099264       0.00373308      -0.00450010 </v>
   <v>       0.00373383      43.07946849      -0.14334698 </v>
   <v>      -0.00449958      -0.14335196       2.34683515 </v>
  </varray>
  <energy>
   <i name="e_fr_energy">    -93.02586607 </i>
   <i name="e_wo_entrp">    -93.02586607 </i>
   <i name="e_0_energy">     -0.00000000 </i>
  </energy>
  <time name="totalsc">    6.34    6.41</time>
 </calculation>
 <calculation>
  <scstep>
   <time name="dav">    0.11    0.11</time>
   <time name="total">    0.46    0.47</time>
   <energy>
    <i name="alphaZ">    441.37612112 </i>
    <i name="ewald">  -7282.79253218 </i>
    <i name="hartreedc">  -3817.76888960 </i>
    <i name="XCdc">    500.52649062 </i>
    <i name="pawpsdc">  12728.11568791 </i>
    <i name="pawaedc"> -12959.96341091 </i>
    <i name="eentropy">     -0.00000000 </i>
    <i name="bandstr">  -1257.58100956 </i>
    <i name="atom">  11559.05757976 </i>
    <i name="e_fr_energy">    -89.02996285 </i>
    <i name="e_wo_entrp">    -89.02996285 </i>
    <i name="e_0_energy">    -89.02996285 </i>
   </energy>
  </scstep>
  <scstep>
   <time name="diag">    0.02    0.02</time>
   <time name="diis">    0.09    0.09</time>
   <time name="orth">    0.00    0.00</time>
   <time name="total">    0.41    0.46</time>
   <energy>
    <i name="e_fr_energy">    -93.25164065 </i>
    <i name="e_wo_entrp">    -93.25164065 </i>
    <i name="e_0_energy">    -93.25164065 </i>
   </energy>
  </scstep>
  <scstep>
   <time name="diag">    0.02    0.02</time>
   <time name="diis">    0.08    0.08</time>
   <time name="orth">    0.00    0.00</time>
   <time name="total">    0.45    0.45</time>
   <energy>
    <i name="e_fr_energy">    -93.07404318 </i>
    <i name="e_wo_entrp">    -93.07404318 </i>
    <i name="e_0_energy">    -93.07404318 </i>
   </energy>
  </scstep>
  <scstep>
   <time name="diag">    0.02    0.02</time>
   <time name="diis">    0.10    0.10</time>
   <time name="orth">    0.00    0.00</time>
   <time name="total">    0.49    0.49</time>
   <energy>
    <i name="e_fr_energy">    -93.04199443 </i>
    <i name="e_wo_entrp">    -93.04199443 </i>
    <i name="e_0_energy">    -93.04199443 </i>
   </energy>
  </scstep>
  <scstep>
   <time name="diag">    0.01    0.02</time>
   <time name="diis">    0.04    0.09</time>
   <time name="orth">    0.00    0.00</time>
   <time name="total">    0.37    0.55</time>
   <energy>
    <i name="e_fr_energy">    -93.02344869 </i>
    <i name="e_wo_entrp">    -93.02344869 </i>
    <i name="e_0_energy">    -93.02344869 </i>
   </energy>
  </scstep>
  <scstep>
   <time name="diag">    0.01    0.03</time>
   <time name="diis">    0.04    0.10</time>
   <time name="orth">    0.00    0.00</time>
   <time name="total">    0.18    0.49</time>
   <energy>
    <i name="e_fr_energy">    -93.02731985 </i>
    <i name="e_wo_entrp">    -93.02731985 </i>
    <i name="e_0_energy">    -93.02731985 </i>
   </energy>
  </scstep>
  <scstep>
   <time name="diag">    0.01    0.02</time>
   <time name="diis">    0.05    0.10</time>
   <time name="orth">    0.00    0.00</time>
   <time name="total">    0.20    0.48</time>
   <energy>
    <i name="e_fr_energy">    -93.02686581 </i>
    <i name="e_wo_entrp">    -93.02686581 </i>
    <i name="e_0_energy">    -93.02686581 </i>
   </energy>
  </scstep>
  <scstep>
   <time name="diag">    0.03    0.03</time>
   <time name="diis">    0.10    0.10</time>
   <time name="orth">    0.00    0.00</time>
   <time name="total">    0.43    0.49</time>
   <energy>
    <i name="e_fr_energy">    -93.02665154 </i>
    <i name="e_wo_entrp">    -93.02665154 </i>
    <i name="e_0_energy">    -93.02665154 </i>
   </energy>
  </scstep>
  <scstep>
   <time name="diag">    0.02    0.02</time>
   <time name="diis">    0.09    0.09</time>
   <time name="orth">    0.00    0.00</time>
   <time name="total">    0.43    0.47</time>
   <energy>
    <i name="e_fr_energy">    -93.02655412 </i>
    <i name="e_wo_entrp">    -93.02655412 </i>
    <i name="e_0_energy">    -93.02655412 </i>
   </energy>
  </scstep>
  <scstep>
   <time name="diag">    0.01    0.01</time>
   <time name="diis">    0.05    0.05</time>
   <time name="orth">    0.00    0.00</time>
   <time name="total">    0.41    0.41</time>
   <energy>
    <i name="e_fr_energy">    -93.02651975 </i>
    <i name="e_wo_entrp">    -93.02651975 </i>
    <i name="e_0_energy">    -93.02651975 </i>
   </energy>
  </scstep>
  <scstep>
   <time name="diag">    0.01    0.01</time>
   <time name="diis">    0.03    0.03</time>
   <time name="orth">    0.00    0.00</time>
   <time name="total">    0.38    0.38</time>
   <energy>
    <i name="alphaZ">    441.37612112 </i>
    <i name="ewald">  -7282.79253218 </i>
    <i name="hartreedc">  -3808.43132619 </i>
    <i name="XCdc">    500.60699977 </i>
    <i name="pawpsdc">  12445.85018942 </i>
    <i name="pawaedc"> -12678.14616794 </i>
    <i name="eentropy">     -0.00000000 </i>
    <i name="bandstr">  -1270.54738194 </i>
    <i name="atom">  11559.05757976 </i>
    <i name="e_fr_energy">    -93.02651819 </i>
    <i name="e_wo_entrp">    -93.02651819 </i>
    <i name="e_0_energy">    -93.02651819 </i>
   </energy>
  </scstep>
  <structure>
   <crystal>
    <varray name="basis" >
     <v>       2.91633100       0.00000000       0.00000000 </v>
     <v>      -0.00000100       4.58096600       0.00014500 </v>
     <v>       0.00000200       0.00030000       9.43439300 </v>
    </varray>
    <i name="volume">    126.03984071 </i>
    <varray name="rec_basis" >
     <v>       0.34289661       0.00000007      -0.00000007 </v>
     <v>       0.00000000       0.21829457      -0.00000694 </v>
     <v>       0.00000000      -0.00000336       0.10599516 </v>
    </varray>
   </crystal>
   <varray name="positions" >
    <v>       0.25001401       0.04611749       0.85223475 </v>
    <v>       0.75000983       0.95383542       0.14777629 </v>
    <v>       0.75000677       0.54618870       0.64775008 </v>
    <v>       0.24999911       0.45389536       0.35218721 </v>
    <v>       0.24999656       0.68809931       0.55692734 </v>
    <v>       0.74999085       0.18820834       0.94310070 </v>
    <v>       0.24999176       0.81181779       0.05691161 </v>
    <v>       0.75000016       0.31184977       0.44313234 </v>
    <v>       0.24999735       0.18934515       0.21159566 </v>
    <v>       0.24999787       0.31077168       0.71162392 </v>
    <v>       0.74999916       0.68923683       0.28837030 </v>
    <v>       0.74999657       0.81063516       0.78839080 </v>
   </varray>
  </structure>
  <varray name="forces" >
   <v>      -0.00127593       1.01576099       1.17977805 </v>
   <v>      -0.00108548      -1.00473422      -1.19068580 </v>
   <v>      -0.00060436       1.00041597      -1.17666713 </v>
   <v>       0.00005922      -1.01982045       1.19465006 </v>
   <v>       0.00038155       0.13020957       1.20241670 </v>
   <v>       0.00086068       0.11396263      -1.21251728 </v>
   <v>       0.00071919      -0.11913362       1.21327163 </v>
   <v>      -0.00003261      -0.11704137      -1.21944602 </v>
   <v>       0.00031581       0.34672231      -0.12041396 </v>
   <v>       0.00020545      -0.35737092      -0.11703545 </v>
   <v>       0.00005173       0.35338575       0.12166055 </v>
   <v>       0.00040476      -0.34235665       0.12498865 </v>
  </varray>
  <varray name="stress" >
   <v>      20.84659206       0.00371606      -0.00194165 </v>
   <v>       0.00371606     -16.39272614      -0.15141519 </v>
   <v>      -0.00194160      -0.15141610     -69.35928481 </v>
  </varray>
  <energy>
   <i name="e_fr_energy">    -93.02651819 </i>
   <i name="e_wo_entrp">    -93.02651819 </i>
   <i name="e_0_energy">     -0.00000000 </i>
  </energy>
  <time name="totalsc">    5.23    6.18</time>
 </calculation>
 <calculation>
  <scstep>
   <time name="dav">    0.11    0.11</time>
   <time name="total">    0.45    0.45</time>
   <energy>
    <i name="alphaZ">    441.37612112 </i>
    <i name="ewald">  -7259.94809421 </i>
    <i name="hartreedc">  -3828.33660508 </i>
    <i name="XCdc">    500.87255650 </i>
    <i name="pawpsdc">  12446.14359302 </i>
    <i name="pawaedc"> -12678.43892044 </i>
    <i name="eentropy">     -0.00000000 </i>
    <i name="bandstr">  -1272.74376570 </i>
    <i name="atom">  11559.05757976 </i>
    <i name="e_fr_energy">    -92.01753502 </i>
    <i name="e_wo_entrp">    -92.01753502 </i>
    <i name="e_0_energy">    -92.01753502 </i>
   </energy>
  </scstep>
  <scstep>
   <time name="diag">    0.01    0.02</time>
   <time name="diis">    0.05    0.10</time>
   <time name="orth">    0.00    0.00</time>
   <time name="total">    0.27    0.49</time>
   <energy>
    <i name="e_fr_energy">    -93.01048507 </i>
    <i name="e_wo_entrp">    -93.01048507 </i>
    <i name="e_0_energy">    -93.01048507 </i>
   </energy>
  </scstep>
  <scstep>
   <time name="diag">    0.01    0.01</time>
   <time name="diis">    0.05    0.05</time>
   <time name="orth">    0.00    0.00</time>
   <time name="total">    0.49    0.50</time>
   <energy>
    <i name="e_fr_energy">    -93.08682475 </i>
    <i name="e_wo_entrp">    -93.08682475 </i>
    <i name="e_0_energy">    -93.08682475 </i>
   </energy>
  </scstep>
  <scstep>
   <time name="diag">    0.03    0.03</time>
   <time name="diis">    0.13    0.13</time>
   <time name="orth">    0.00    0.00</time>
   <time name="total">    0.53    0.53</time>
   <energy>
    <i name="e_fr_energy">    -93.07877083 </i>
    <i name="e_wo_entrp">    -93.07877083 </i>
    <i name="e_0_energy">    -93.07877083 </i>
   </energy>
  </scstep>
  <scstep>
   <time name="diag">    0.01    0.01</time>
   <time name="diis">    0.05    0.05</time>
   <time name="orth">    0.00    0.00</time>
   <time name="total">    0.42    0.42</time>
   <energy>
    <i name="e_fr_energy">    -93.07564327 </i>
    <i name="e_wo_entrp">    -93.07564327 </i>
    <i name="e_0_energy">    -93.07564327 </i>
   </energy>
  </scstep>
  <scstep>
   <time name="diag">    0.01    0.01</time>
   <time name="diis">    0.05    0.05</time>
   <time name="orth">    0.00    0.00</time>
   <time name="total">    0.40    0.40</time>
   <energy>
    <i name="e_fr_energy">    -93.07522717 </i>
    <i name="e_wo_entrp">    -93.07522717 </i>
    <i name="e_0_energy">    -93.07522717 </i>
   </energy>
  </scstep>
  <scstep>
   <time name="diag">    0.02    0.02</time>
   <time name="diis">    0.17    0.17</time>
   <time name="orth">    0.00    0.00</time>
   <time name="total">    0.58    0.58</time>
   <energy>
    <i name="e_fr_energy">    -93.07514637 </i>
    <i name="e_wo_entrp">    -93.07514637 </i>
    <i name="e_0_energy">    -93.07514637 </i>
   </energy>
  </scstep>
  <scstep>
   <time name="diag">    0.02    0.02</time>
   <time name="diis">    0.08    0.08</time>
   <time name="orth">    0.00    0.00</time>
   <time name="total">    0.72    0.72</time>
   <energy>
    <i name="e_fr_energy">    -93.07513026 </i>
    <i name="e_wo_entrp">    -93.07513026 </i>
    <i name="e_0_energy">    -93.07513026 </i>
   </energy>
  </scstep>
  <scstep>
   <time name="diag">    0.03    0.03</time>
   <time name="diis">    0.08    0.08</time>
   <time name="orth">    0.00    0.00</time>
   <time name="total">    0.46    0.46</time>
   <energy>
    <i name="e_fr_energy">    -93.07509731 </i>
    <i name="e_wo_entrp">    -93.07509731 </i>
    <i name="e_0_energy">    -93.07509731 </i>
   </energy>
  </scstep>
  <scstep>
   <time name="diag">    0.01    0.01</time>
   <time name="diis">    0.03    0.03</time>
   <time name="orth">    0.00    0.00</time>
   <time name="total">    0.38    0.38</time>
   <energy>
    <i name="alphaZ">    441.37612112 </i>
    <i name="ewald">  -7259.94809421 </i>
    <i name="hartreedc">  -3831.98862659 </i>
    <i name="XCdc">    500.74126834 </i>
    <i name="pawpsdc">  12571.62575107 </i>
    <i name="pawaedc"> -12803.66500155 </i>
    <i name="eentropy">     -0.00000000 </i>
    <i name="bandstr">  -1270.27409451 </i>
    <i name="atom">  11559.05757976 </i>
    <i name="e_fr_energy">    -93.07509655 </i>
    <i name="e_wo_entrp">    -93.07509655 </i>
    <i name="e_0_energy">    -93.07509655 </i>
   </energy>
  </scstep>
  <structure>
   <crystal>
    <varray name="basis" >
     <v>       2.91633100       0.00000000       0.00000000 </v>
     <v>      -0.00000100       4.58096600       0.00014500 </v>
     <v>       0.00000200       0.00030000       9.43439300 </v>
    </varray>
    <i name="volume">    126.03984071 </i>
    <varray name="rec_basis" >
     <v>       0.34289661       0.00000007      -0.00000007 </v>
     <v>       0.00000000       0.21829457      -0.00000694 </v>
     <v>       0.00000000      -0.00000336       0.10599516 </v>
    </varray>
   </crystal>
   <varray name="positions" >
    <v>       0.25001739       0.05102272       0.84918336 </v>
    <v>       0.75001237       0.94891832       0.15083010 </v>
    <v>       0.75000845       0.55110429       0.65080310 </v>
    <v>       0.24999892       0.44900049       0.34912091 </v>
    <v>       0.24999566       0.68722707       0.55943380 </v>
    <v>       0.74998856       0.18737275       0.94060200 </v>
    <v>       0.24998981       0.81265850       0.05941153 </v>
    <v>       0.75000015       0.31271151       0.44063964 </v>
    <v>       0.24999686       0.19170716       0.21179865 </v>
    <v>       0.24999727       0.30844597       0.71184513 </v>
    <v>       0.74999885       0.69156342       0.28814840 </v>
    <v>       0.74999570       0.80826878       0.78818438 </v>
   </varray>
  </structure>
  <varray name="forces" >
   <v>      -0.00152150       0.77636535       1.66291619 </v>
   <v>      -0.00127255      -0.76142768      -1.67560616 </v>
   <v>      -0.00084361       0.75772271      -1.65750636 </v>
   <v>      -0.00001829      -0.77862668       1.68128070 </v>
   <v>       0.00056892       0.18996977       1.41381254 </v>
   <v>       0.00117465       0.16938829      -1.42726026 </v>
   <v>       0.00087067      -0.17639548       1.42719988 </v>
   <v>      -0.00012381      -0.17335265      -1.43698700 </v>
   <v>       0.00031675       0.05875608      -0.40074387 </v>
   <v>       0.00030937      -0.07443851      -0.39639582 </v>
   <v>       0.00003109       0.06699366       0.40320518 </v>
   <v>       0.00050831      -0.05495486       0.40608498 </v>
  </varray>
  <varray name="stress" >
   <v>       6.65436416       0.00114414      -0.00310803 </v>
   <v>       0.00114493       9.50475775      -0.15597447 </v>
   <v>      -0.00310812      -0.15597816     -39.33341837 </v>
  </varray>
  <energy>
   <i name="e_fr_energy">    -93.07509655 </i>
   <i name="e_wo_entrp">    -93.07509655 </i>
   <i name="e_0_energy">     -0.00000000 </i>
  </energy>
  <time name="totalsc">    5.53    5.79</time>
 </calculation>
 <calculation>
  <scstep>
   <time name="dav">    0.10    0.10</time>
   <time name="total">    0.46    0.46</time>
   <energy>
    <i name="alphaZ">    441.37612112 </i>
    <i name="ewald">  -7257.05145620 </i>
    <i name="hartreedc">  -3834.47079648 </i>
    <i name="XCdc">    500.77021229 </i>
    <i name="pawpsdc">  12571.47980176 </i>
    <i name="pawaedc"> -12803.51816100 </i>
    <i name="eentropy">     -0.00000000 </i>
    <i name="bandstr">  -1270.71954357 </i>
    <i name="atom">  11559.05757976 </i>
    <i name="e_fr_energy">    -93.07624232 </i>
    <i name="e_wo_entrp">    -93.07624232 </i>
    <i name="e_0_energy">    -93.07624232 </i>
   </energy>
  </scstep>
  <scstep>
   <time name="diag">    0.03    0.03</time>
   <time name="diis">    0.09    0.09</time>
   <time name="orth">    0.00    0.00</time>
   <time name="total">    0.50    0.50</time>
   <energy>
    <i name="e_fr_energy">    -93.08602832 </i>
    <i name="e_wo_entrp">    -93.08602832 </i>
    <i name="e_0_energy">    -93.08602832 </i>
   </energy>
  </scstep>
  <scstep>
   <time name="diag">    0.03    0.03</time>
   <time name="diis">    0.06    0.06</time>
   <time name="orth">    0.00    0.00</time>
   <time name="total">    0.46    0.46</time>
   <energy>
    <i name="e_fr_energy">    -93.08596871 </i>
    <i name="e_wo_entrp">    -93.08596871 </i>
    <i name="e_0_energy">    -93.08596871 </i>
   </energy>
  </scstep>
  <scstep>
   <time name="diag">    0.02    0.02</time>
   <time name="diis">    0.06    0.06</time>
   <time name="orth">    0.00    0.00</time>
   <time name="total">    0.51    0.51</time>
   <energy>
    <i name="e_fr_energy">    -93.08589033 </i>
    <i name="e_wo_entrp">    -93.08589033 </i>
    <i name="e_0_energy">    -93.08589033 </i>
   </energy>
  </scstep>
  <scstep>
   <time name="diag">    0.01    0.01</time>
   <time name="diis">    0.05    0.05</time>
   <time name="orth">    0.00    0.00</time>
   <time name="total">    0.40    0.40</time>
   <energy>
    <i name="e_fr_energy">    -93.08584089 </i>
    <i name="e_wo_entrp">    -93.08584089 </i>
    <i name="e_0_energy">    -93.08584089 </i>
   </energy>
  </scstep>
  <scstep>
   <time name="diag">    0.01    0.01</time>
   <time name="diis">    0.04    0.04</time>
   <time name="orth">    0.00    0.00</time>
   <time name="total">    0.39    0.39</time>
   <energy>
    <i name="e_fr_energy">    -93.08585554 </i>
    <i name="e_wo_entrp">    -93.08585554 </i>
    <i name="e_0_energy">    -93.08585554 </i>
   </energy>
  </scstep>
  <scstep>
   <time name="diag">    0.02    0.02</time>
   <time name="diis">    0.04    0.04</time>
[...]
        <r>  0.0000  0.0027  0.0289  0.0000  0.0000  0.0000  0.0000  0.0000  0.0000 </r>
        <r>  0.0000  0.0166  0.0260  0.0000  0.0000  0.0000  0.0000  0.0000  0.0000 </r>
        <r>  0.0000  0.0027  0.0288  0.0000  0.0000  0.0000  0.0000  0.0000  0.0000 </r>
        <r>  0.0000  0.0167  0.0260  0.0000  0.0000  0.0000  0.0000  0.0000  0.0000 </r>
        <r>  0.0001  0.0848  0.0581  0.0000  0.0000  0.0000  0.0000  0.0000  0.0000 </r>
        <r>  0.0001  0.0848  0.0580  0.0000  0.0000  0.0000  0.0000  0.0000  0.0000 </r>
        <r>  0.0006  0.0843  0.0711  0.0000  0.0000  0.0000  0.0000  0.0000  0.0000 </r>
        <r>  0.0006  0.0842  0.0710  0.0000  0.0000  0.0000  0.0000  0.0000  0.0000 </r>
       </set>
       <set comment="band 45">
        <r>  0.0000  0.0000  0.0000  0.0029  0.1690  0.0000  0.0000  0.1071  0.0000 </r>
        <r>  0.0000  0.0000  0.0000  0.0023  0.0858  0.0000  0.0000  0.0201  0.0000 </r>
        <r>  0.0000  0.0000  0.0000  0.0023  0.0864  0.0000  0.0000  0.0203  0.0000 </r>
        <r>  0.0000  0.0000  0.0000  0.0029  0.1677  0.0000  0.0000  0.1062  0.0000 </r>
        <r>  0.0000  0.0000  0.0000  0.0041  0.0000  0.0000  0.0000  0.0000  0.0000 </r>
        <r>  0.0000  0.0000  0.0000  0.0112  0.0000  0.0000  0.0000  0.0000  0.0000 </r>
        <r>  0.0000  0.0000  0.0000  0.0041  0.0000  0.0000  0.0000  0.0000  0.0000 </r>
        <r>  0.0000  0.0000  0.0000  0.0112  0.0000  0.0000  0.0000  0.0000  0.0000 </r>
        <r>  0.0000  0.0000  0.0000  0.0366  0.0000  0.0000  0.0000  0.0000  0.0000 </r>
        <r>  0.0000  0.0000  0.0000  0.0368  0.0000  0.0000  0.0000  0.0000  0.0000 </r>
        <r>  0.0000  0.0000  0.0000  0.0257  0.0000  0.0000  0.0000  0.0000  0.0000 </r>
        <r>  0.0000  0.0000  0.0000  0.0258  0.0000  0.0000  0.0000  0.0000  0.0000 </r>
       </set>
       <set comment="band 46">
        <r>  0.0000  0.0000  0.0000  0.0021  0.1660  0.0000  0.0000  0.1266  0.0000 </r>
        <r>  0.0000  0.0000  0.0000  0.0031  0.0776  0.0000  0.0000  0.0172  0.0000 </r>
        <r>  0.0000  0.0000  0.0000  0.0031  0.0770  0.0000  0.0000  0.0171  0.0000 </r>
        <r>  0.0000  0.0000  0.0000  0.0022  0.1672  0.0000  0.0000  0.1275  0.0000 </r>
        <r>  0.0000  0.0000  0.0000  0.0061  0.0000  0.0000  0.0000  0.0000  0.0000 </r>
        <r>  0.0000  0.0000  0.0000  0.0077  0.0000  0.0000  0.0000  0.0000  0.0000 </r>
        <r>  0.0000  0.0000  0.0000  0.0061  0.0000  0.0000  0.0000  0.0000  0.0000 </r>
        <r>  0.0000  0.0000  0.0000  0.0077  0.0000  0.0000  0.0000  0.0000  0.0000 </r>
        <r>  0.0000  0.0000  0.0000  0.0419  0.0000  0.0000  0.0000  0.0000  0.0000 </r>
        <r>  0.0000  0.0000  0.0000  0.0415  0.0000  0.0000  0.0000  0.0000  0.0000 </r>
        <r>  0.0000  0.0000  0.0000  0.0192  0.0000  0.0000  0.0000  0.0000  0.0000 </r>
        <r>  0.0000  0.0000  0.0000  0.0190  0.0000  0.0000  0.0000  0.0000  0.0000 </r>
       </set>
       <set comment="band 47">
        <r>  0.0025  0.0007  0.0000  0.0000  0.0000  0.1324  0.1970  0.0000  0.0149 </r>
        <r>  0.0002  0.0000  0.0013  0.0000  0.0000  0.0293  0.0192  0.0000  0.0106 </r>
        <r>  0.0002  0.0000  0.0013  0.0000  0.0000  0.0291  0.0191  0.0000  0.0106 </r>
        <r>  0.0025  0.0007  0.0000  0.0000  0.0000  0.1330  0.1979  0.0000  0.0149 </r>
        <r>  0.0000  0.0000  0.0023  0.0000  0.0000  0.0000  0.0000  0.0000  0.0000 </r>
        <r>  0.0007  0.0052  0.0110  0.0000  0.0000  0.0000  0.0000  0.0000  0.0000 </r>
        <r>  0.0000  0.0000  0.0023  0.0000  0.0000  0.0000  0.0000  0.0000  0.0000 </r>
        <r>  0.0007  0.0052  0.0111  0.0000  0.0000  0.0000  0.0000  0.0000  0.0000 </r>
        <r>  0.0001  0.0085  0.0163  0.0000  0.0000  0.0000  0.0000  0.0000  0.0000 </r>
        <r>  0.0001  0.0085  0.0162  0.0000  0.0000  0.0000  0.0000  0.0000  0.0000 </r>
        <r>  0.0000  0.0012  0.0039  0.0000  0.0000  0.0000  0.0000  0.0000  0.0000 </r>
        <r>  0.0000  0.0012  0.0038  0.0000  0.0000  0.0000  0.0000  0.0000  0.0000 </r>
       </set>
       <set comment="band 48">
        <r>  0.0051  0.0016  0.0002  0.0000  0.0000  0.1381  0.1603  0.0000  0.0129 </r>
        <r>  0.0000  0.0001  0.0006  0.0000  0.0000  0.0244  0.0200  0.0000  0.0125 </r>
        <r>  0.0000  0.0001  0.0006  0.0000  0.0000  0.0245  0.0202  0.0000  0.0125 </r>
        <r>  0.0051  0.0016  0.0002  0.0000  0.0000  0.1375  0.1595  0.0000  0.0127 </r>
        <r>  0.0002  0.0000  0.0008  0.0000  0.0000  0.0000  0.0000  0.0000  0.0000 </r>
        <r>  0.0035  0.0006  0.0435  0.0000  0.0000  0.0000  0.0000  0.0000  0.0000 </r>
        <r>  0.0002  0.0000  0.0008  0.0000  0.0000  0.0000  0.0000  0.0000  0.0000 </r>
        <r>  0.0035  0.0006  0.0434  0.0000  0.0000  0.0000  0.0000  0.0000  0.0000 </r>
        <r>  0.0002  0.0010  0.0129  0.0000  0.0000  0.0000  0.0000  0.0000  0.0000 </r>
        <r>  0.0002  0.0011  0.0129  0.0000  0.0000  0.0000  0.0000  0.0000  0.0000 </r>
        <r>  0.0002  0.0067  0.0124  0.0000  0.0000  0.0000  0.0000  0.0000  0.0000 </r>
        <r>  0.0002  0.0067  0.0124  0.0000  0.0000  0.0000  0.0000  0.0000  0.0000 </r>
       </set>
       <set comment="band 49">
        <r>  0.0142  0.0001  0.0003  0.0000  0.0000  0.0889  0.0223  0.0000  0.1631 </r>
        <r>  0.0000  0.0001  0.0003  0.0000  0.0000  0.0147  0.0004  0.0000  0.0021 </r>
        <r>  0.0000  0.0001  0.0003  0.0000  0.0000  0.0146  0.0004  0.0000  0.0021 </r>
        <r>  0.0143  0.0001  0.0003  0.0000  0.0000  0.0893  0.0225  0.0000  0.1643 </r>
        <r>  0.0003  0.0009  0.0037  0.0000  0.0000  0.0000  0.0000  0.0000  0.0000 </r>
        <r>  0.0001  0.0873  0.0203  0.0000  0.0000  0.0000  0.0000  0.0000  0.0000 </r>
        <r>  0.0003  0.0008  0.0037  0.0000  0.0000  0.0000  0.0000  0.0000  0.0000 </r>
        <r>  0.0001  0.0880  0.0204  0.0000  0.0000  0.0000  0.0000  0.0000  0.0000 </r>
        <r>  0.0004  0.0187  0.0000  0.0000  0.0000  0.0000  0.0000  0.0000  0.0000 </r>
        <r>  0.0004  0.0186  0.0000  0.0000  0.0000  0.0000  0.0000  0.0000  0.0000 </r>
        <r>  0.0055  0.0052  0.0000  0.0000  0.0000  0.0000  0.0000  0.0000  0.0000 </r>
        <r>  0.0054  0.0052  0.0000  0.0000  0.0000  0.0000  0.0000  0.0000  0.0000 </r>
       </set>
       <set comment="band 50">
        <r>  0.0146  0.0000  0.0003  0.0000  0.0000  0.0559  0.0204  0.0000  0.1803 </r>
        <r>  0.0001  0.0002  0.0004  0.0000  0.0000  0.0235  0.0002  0.0000  0.0009 </r>
        <r>  0.0001  0.0002  0.0004  0.0000  0.0000  0.0236  0.0002  0.0000  0.0009 </r>
        <r>  0.0145  0.0000  0.0003  0.0000  0.0000  0.0553  0.0203  0.0000  0.1790 </r>
        <r>  0.0000  0.0102  0.0000  0.0000  0.0000  0.0000  0.0000  0.0000  0.0000 </r>
        <r>  0.0000  0.1139  0.0105  0.0000  0.0000  0.0000  0.0000  0.0000  0.0000 </r>
        <r>  0.0000  0.0102  0.0000  0.0000  0.0000  0.0000  0.0000  0.0000  0.0000 </r>
        <r>  0.0000  0.1132  0.0104  0.0000  0.0000  0.0000  0.0000  0.0000  0.0000 </r>
        <r>  0.0001  0.0141  0.0007  0.0000  0.0000  0.0000  0.0000  0.0000  0.0000 </r>
        <r>  0.0001  0.0142  0.0007  0.0000  0.0000  0.0000  0.0000  0.0000  0.0000 </r>
        <r>  0.0046  0.0014  0.0026  0.0000  0.0000  0.0000  0.0000  0.0000  0.0000 </r>
        <r>  0.0047  0.0014  0.0026  0.0000  0.0000  0.0000  0.0000  0.0000  0.0000 </r>
       </set>
       <set comment="band 51">
        <r>  0.0018  0.0003  0.0065  0.0000  0.0000  0.0224  0.0767  0.0000  0.0169 </r>
        <r>  0.0006  0.0004  0.0004  0.0000  0.0000  0.0259  0.1998  0.0000  0.0098 </r>
        <r>  0.0006  0.0004  0.0004  0.0000  0.0000  0.0258  0.1994  0.0000  0.0097 </r>
        <r>  0.0018  0.0003  0.0066  0.0000  0.0000  0.0225  0.0769  0.0000  0.0169 </r>
        <r>  0.0000  0.0058  0.0189  0.0000  0.0000  0.0000  0.0000  0.0000  0.0000 </r>
        <r>  0.0001  0.0000  0.0476  0.0000  0.0000  0.0000  0.0000  0.0000  0.0000 </r>
        <r>  0.0000  0.0058  0.0190  0.0000  0.0000  0.0000  0.0000  0.0000  0.0000 </r>
        <r>  0.0001  0.0000  0.0477  0.0000  0.0000  0.0000  0.0000  0.0000  0.0000 </r>
        <r>  0.0013  0.0193  0.0012  0.0000  0.0000  0.0000  0.0000  0.0000  0.0000 </r>
        <r>  0.0013  0.0192  0.0012  0.0000  0.0000  0.0000  0.0000  0.0000  0.0000 </r>
        <r>  0.0001  0.0011  0.0018  0.0000  0.0000  0.0000  0.0000  0.0000  0.0000 </r>
        <r>  0.0001  0.0011  0.0018  0.0000  0.0000  0.0000  0.0000  0.0000  0.0000 </r>
       </set>
       <set comment="band 52">
        <r>  0.0000  0.0000  0.0000  0.0068  0.0003  0.0000  0.0000  0.0547  0.0000 </r>
        <r>  0.0000  0.0000  0.0000  0.0066  0.1533  0.0000  0.0000  0.2034  0.0000 </r>
        <r>  0.0000  0.0000  0.0000  0.0048  0.1067  0.0000  0.0000  0.1403  0.0000 </r>
        <r>  0.0000  0.0000  0.0000  0.0097  0.0006  0.0000  0.0000  0.0762  0.0000 </r>
        <r>  0.0000  0.0000  0.0000  0.0120  0.0000  0.0000  0.0000  0.0000  0.0000 </r>
        <r>  0.0000  0.0000  0.0000  0.0261  0.0000  0.0000  0.0000  0.0000  0.0000 </r>
        <r>  0.0000  0.0000  0.0000  0.0166  0.0000  0.0000  0.0000  0.0000  0.0000 </r>
        <r>  0.0000  0.0000  0.0000  0.0374  0.0000  0.0000  0.0000  0.0000  0.0000 </r>
        <r>  0.0000  0.0000  0.0000  0.0330  0.0000  0.0000  0.0000  0.0000  0.0000 </r>
        <r>  0.0000  0.0000  0.0000  0.0240  0.0000  0.0000  0.0000  0.0000  0.0000 </r>
        <r>  0.0000  0.0000  0.0000  0.0164  0.0000  0.0000  0.0000  0.0000  0.0000 </r>
        <r>  0.0000  0.0000  0.0000  0.0114  0.0000  0.0000  0.0000  0.0000  0.0000 </r>
       </set>
       <set comment="band 53">
        <r>  0.0000  0.0000  0.0000  0.0095  0.0012  0.0000  0.0000  0.0669  0.0000 </r>
        <r>  0.0000  0.0000  0.0000  0.0040  0.1096  0.0000  0.0000  0.1536  0.0000 </r>
        <r>  0.0000  0.0000  0.0000  0.0059  0.1561  0.0000  0.0000  0.2167  0.0000 </r>
        <r>  0.0000  0.0000  0.0000  0.0066  0.0009  0.0000  0.0000  0.0455  0.0000 </r>
        <r>  0.0000  0.0000  0.0000  0.0145  0.0000  0.0000  0.0000  0.0000  0.0000 </r>
        <r>  0.0000  0.0000  0.0000  0.0378  0.0000  0.0000  0.0000  0.0000  0.0000 </r>
        <r>  0.0000  0.0000  0.0000  0.0098  0.0000  0.0000  0.0000  0.0000  0.0000 </r>
        <r>  0.0000  0.0000  0.0000  0.0265  0.0000  0.0000  0.0000  0.0000  0.0000 </r>
        <r>  0.0000  0.0000  0.0000  0.0185  0.0000  0.0000  0.0000  0.0000  0.0000 </r>
        <r>  0.0000  0.0000  0.0000  0.0276  0.0000  0.0000  0.0000  0.0000  0.0000 </r>
        <r>  0.0000  0.0000  0.0000  0.0118  0.0000  0.0000  0.0000  0.0000  0.0000 </r>
        <r>  0.0000  0.0000  0.0000  0.0168  0.0000  0.0000  0.0000  0.0000  0.0000 </r>
       </set>
       <set comment="band 54">
        <r>  0.0010  0.0000  0.0048  0.0000  0.0000  0.0216  0.0891  0.0000  0.0215 </r>
        <r>  0.0010  0.0022  0.0000  0.0000  0.0000  0.0448  0.1554  0.0000  0.0043 </r>
        <r>  0.0010  0.0022  0.0000  0.0000  0.0000  0.0449  0.1560  0.0000  0.0043 </r>
        <r>  0.0010  0.0000  0.0048  0.0000  0.0000  0.0216  0.0889  0.0000  0.0214 </r>
        <r>  0.0004  0.0001  0.0409  0.0000  0.0000  0.0000  0.0000  0.0000  0.0000 </r>
        <r>  0.0006  0.0008  0.0374  0.0000  0.0000  0.0000  0.0000  0.0000  0.0000 </r>
        <r>  0.0004  0.0001  0.0408  0.0000  0.0000  0.0000  0.0000  0.0000  0.0000 </r>
        <r>  0.0006  0.0008  0.0373  0.0000  0.0000  0.0000  0.0000  0.0000  0.0000 </r>
        <r>  0.0015  0.0286  0.0003  0.0000  0.0000  0.0000  0.0000  0.0000  0.0000 </r>
        <r>  0.0015  0.0287  0.0003  0.0000  0.0000  0.0000  0.0000  0.0000  0.0000 </r>
        <r>  0.0009  0.0000  0.0053  0.0000  0.0000  0.0000  0.0000  0.0000  0.0000 </r>
        <r>  0.0009  0.0000  0.0053  0.0000  0.0000  0.0000  0.0000  0.0000  0.0000 </r>
       </set>
       <set comment="band 55">
        <r>  0.0000  0.0003  0.0018  0.0000  0.0000  0.0104  0.0041  0.0000  0.0173 </r>
        <r>  0.0175  0.0001  0.0000  0.0000  0.0000  0.2069  0.0001  0.0000  0.1259 </r>
        <r>  0.0177  0.0001  0.0000  0.0000  0.0000  0.2082  0.0001  0.0000  0.1269 </r>
        <r>  0.0000  0.0003  0.0018  0.0000  0.0000  0.0103  0.0040  0.0000  0.0172 </r>
        <r>  0.0009  0.0334  0.0134  0.0000  0.0000  0.0000  0.0000  0.0000  0.0000 </r>
        <r>  0.0003  0.0008  0.0072  0.0000  0.0000  0.0000  0.0000  0.0000  0.0000 </r>
        <r>  0.0009  0.0331  0.0134  0.0000  0.0000  0.0000  0.0000  0.0000  0.0000 </r>
        <r>  0.0003  0.0008  0.0071  0.0000  0.0000  0.0000  0.0000  0.0000  0.0000 </r>
        <r>  0.0053  0.0002  0.0075  0.0000  0.0000  0.0000  0.0000  0.0000  0.0000 </r>
        <r>  0.0053  0.0002  0.0076  0.0000  0.0000  0.0000  0.0000  0.0000  0.0000 </r>
        <r>  0.0002  0.0015  0.0037  0.0000  0.0000  0.0000  0.0000  0.0000  0.0000 </r>
        <r>  0.0002  0.0015  0.0037  0.0000  0.0000  0.0000  0.0000  0.0000  0.0000 </r>
       </set>
       <set comment="band 56">
        <r>  0.0000  0.0003  0.0025  0.0000  0.0000  0.0196  0.0076  0.0000  0.0201 </r>
        <r>  0.0169  0.0000  0.0001  0.0000  0.0000  0.1863  0.0003  0.0000  0.1157 </r>
        <r>  0.0168  0.0000  0.0001  0.0000  0.0000  0.1848  0.0003  0.0000  0.1148 </r>
        <r>  0.0000  0.0003  0.0025  0.0000  0.0000  0.0197  0.0076  0.0000  0.0202 </r>
        <r>  0.0006  0.0548  0.0040  0.0000  0.0000  0.0000  0.0000  0.0000  0.0000 </r>
        <r>  0.0003  0.0053  0.0052  0.0000  0.0000  0.0000  0.0000  0.0000  0.0000 </r>
        <r>  0.0006  0.0551  0.0041  0.0000  0.0000  0.0000  0.0000  0.0000  0.0000 </r>
        <r>  0.0003  0.0054  0.0053  0.0000  0.0000  0.0000  0.0000  0.0000  0.0000 </r>
        <r>  0.0066  0.0008  0.0072  0.0000  0.0000  0.0000  0.0000  0.0000  0.0000 </r>
        <r>  0.0065  0.0008  0.0072  0.0000  0.0000  0.0000  0.0000  0.0000  0.0000 </r>
        <r>  0.0002  0.0006  0.0062  0.0000  0.0000  0.0000  0.0000  0.0000  0.0000 </r>
        <r>  0.0002  0.0006  0.0062  0.0000  0.0000  0.0000  0.0000  0.0000  0.0000 </r>
       </set>
       <set comment="band 57">
        <r>  0.0002  0.0037  0.0026  0.0000  0.0000  0.0566  0.0153  0.0000  0.0481 </r>
        <r>  0.0002  0.0000  0.0001  0.0000  0.0000  0.0098  0.0818  0.0000  0.1164 </r>
        <r>  0.0002  0.0000  0.0001  0.0000  0.0000  0.0098  0.0814  0.0000  0.1159 </r>
        <r>  0.0002  0.0037  0.0026  0.0000  0.0000  0.0568  0.0153  0.0000  0.0483 </r>
        <r>  0.0022  0.0150  0.0027  0.0000  0.0000  0.0000  0.0000  0.0000  0.0000 </r>
        <r>  0.0023  0.0010  0.0167  0.0000  0.0000  0.0000  0.0000  0.0000  0.0000 </r>
        <r>  0.0022  0.0151  0.0027  0.0000  0.0000  0.0000  0.0000  0.0000  0.0000 </r>
        <r>  0.0023  0.0010  0.0167  0.0000  0.0000  0.0000  0.0000  0.0000  0.0000 </r>
        <r>  0.0003  0.0058  0.0450  0.0000  0.0000  0.0000  0.0000  0.0000  0.0000 </r>
        <r>  0.0003  0.0058  0.0448  0.0000  0.0000  0.0000  0.0000  0.0000  0.0000 </r>
        <r>  0.0003  0.0183  0.0140  0.0000  0.0000  0.0000  0.0000  0.0000  0.0000 </r>
        <r>  0.0003  0.0182  0.0140  0.0000  0.0000  0.0000  0.0000  0.0000  0.0000 </r>
       </set>
       <set comment="band 58">
        <r>  0.0005  0.0038  0.0038  0.0000  0.0000  0.0599  0.0118  0.0000  0.0512 </r>
        <r>  0.0003  0.0002  0.0005  0.0000  0.0000  0.0100  0.0778  0.0000  0.0929 </r>
        <r>  0.0003  0.0002  0.0005  0.0000  0.0000  0.0101  0.0781  0.0000  0.0932 </r>
        <r>  0.0005  0.0038  0.0038  0.0000  0.0000  0.0596  0.0117  0.0000  0.0510 </r>
        <r>  0.0022  0.0339  0.0006  0.0000  0.0000  0.0000  0.0000  0.0000  0.0000 </r>
        <r>  0.0009  0.0007  0.0195  0.0000  0.0000  0.0000  0.0000  0.0000  0.0000 </r>
        <r>  0.0021  0.0339  0.0006  0.0000  0.0000  0.0000  0.0000  0.0000  0.0000 </r>
        <r>  0.0009  0.0007  0.0194  0.0000  0.0000  0.0000  0.0000  0.0000  0.0000 </r>
        <r>  0.0001  0.0048  0.0552  0.0000  0.0000  0.0000  0.0000  0.0000  0.0000 </r>
        <r>  0.0001  0.0049  0.0553  0.0000  0.0000  0.0000  0.0000  0.0000  0.0000 </r>
        <r>  0.0000  0.0169  0.0184  0.0000  0.0000  0.0000  0.0000  0.0000  0.0000 </r>
        <r>  0.0000  0.0169  0.0184  0.0000  0.0000  0.0000  0.0000  0.0000  0.0000 </r>
       </set>
       <set comment="band 59">
        <r>  0.0016  0.0024  0.0020  0.0000  0.0000  0.0016  0.0161  0.0000  0.0015 </r>
        <r>  0.0038  0.0047  0.0105  0.0000  0.0000  0.0867  0.1136  0.0000  0.0899 </r>
        <r>  0.0039  0.0048  0.0108  0.0000  0.0000  0.0891  0.1161  0.0000  0.0921 </r>
        <r>  0.0015  0.0024  0.0020  0.0000  0.0000  0.0016  0.0157  0.0000  0.0014 </r>
        <r>  0.0018  0.0000  0.0350  0.0000  0.0000  0.0000  0.0000  0.0000  0.0000 </r>
        <r>  0.0000  0.0000  0.0007  0.0000  0.0000  0.0000  0.0000  0.0000  0.0000 </r>
        <r>  0.0018  0.0000  0.0338  0.0000  0.0000  0.0000  0.0000  0.0000  0.0000 </r>
        <r>  0.0000  0.0000  0.0007  0.0000  0.0000  0.0000  0.0000  0.0000  0.0000 </r>
        <r>  0.0000  0.0245  0.0000  0.0000  0.0000  0.0000  0.0000  0.0000  0.0000 </r>
        <r>  0.0000  0.0251  0.0000  0.0000  0.0000  0.0000  0.0000  0.0000  0.0000 </r>
        <r>  0.0031  0.0347  0.0197  0.0000  0.0000  0.0000  0.0000  0.0000  0.0000 </r>
        <r>  0.0032  0.0355  0.0203  0.0000  0.0000  0.0000  0.0000  0.0000  0.0000 </r>
       </set>
       <set comment="band 60">
        <r>  0.0000  0.0000  0.0000  0.0075  0.1409  0.0000  0.0000  0.0938  0.0000 </r>
        <r>  0.0000  0.0000  0.0000  0.0014  0.0587  0.0000  0.0000  0.0010  0.0000 </r>
        <r>  0.0000  0.0000  0.0000  0.0014  0.0599  0.0000  0.0000  0.0011  0.0000 </r>
        <r>  0.0000  0.0000  0.0000  0.0074  0.1381  0.0000  0.0000  0.0919  0.0000 </r>
        <r>  0.0000  0.0000  0.0000  0.0021  0.0000  0.0000  0.0000  0.0000  0.0000 </r>
        <r>  0.0000  0.0000  0.0000  0.0792  0.0000  0.0000  0.0000  0.0000  0.0000 </r>
        <r>  0.0000  0.0000  0.0000  0.0020  0.0000  0.0000  0.0000  0.0000  0.0000 </r>
        <r>  0.0000  0.0000  0.0000  0.0776  0.0000  0.0000  0.0000  0.0000  0.0000 </r>
        <r>  0.0000  0.0000  0.0000  0.0103  0.0000  0.0000  0.0000  0.0000  0.0000 </r>
        <r>  0.0000  0.0000  0.0000  0.0104  0.0000  0.0000  0.0000  0.0000  0.0000 </r>
        <r>  0.0000  0.0000  0.0000  0.0746  0.0000  0.0000  0.0000  0.0000  0.0000 </r>
        <r>  0.0000  0.0000  0.0000  0.0761  0.0000  0.0000  0.0000  0.0000  0.0000 </r>
       </set>
      </set>
     </set>
    </set>
   </array>
  </projected>
 </calculation>
 <structure name="finalpos" >
  <crystal>
   <varray name="basis" >
    <v>       2.91633100       0.00000000       0.00000000 </v>
    <v>      -0.00000100       4.58096600       0.00014500 </v>
    <v>       0.00000200       0.00030000       9.43439300 </v>
   </varray>
   <i name="volume">    126.03984071 </i>
   <varray name="rec_basis" >
    <v>       0.34289661       0.00000007      -0.00000007 </v>
    <v>       0.00000000       0.21829457      -0.00000694 </v>
    <v>       0.00000000      -0.00000336       0.10599516 </v>
   </varray>
  </crystal>
  <varray name="positions" >
   <v>       0.24999093       0.14552270       0.85023646 </v>
   <v>       0.75002184       0.85450002       0.14974829 </v>
   <v>       0.74998083       0.64551533       0.64976274 </v>
   <v>       0.24997851       0.35446213       0.35024515 </v>
   <v>       0.24998694       0.76482943       0.56487649 </v>
   <v>       0.75001733       0.26478365       0.93511041 </v>
   <v>       0.25004692       0.73519629       0.06487169 </v>
   <v>       0.74998177       0.23516750       0.43513157 </v>
   <v>       0.25001711       0.11662527       0.20697432 </v>
   <v>       0.24998920       0.38335070       0.70695431 </v>
   <v>       0.74999502       0.61669760       0.29306105 </v>
   <v>       0.74999360       0.88335038       0.79302853 </v>
  </varray>
 </structure>
</modeling>
