unknown system                          
           1
     2.916331    0.000000    0.000000
    -0.000001    4.580966    0.000145
     0.000002    0.000300    9.434393
   Mn   O 
   4   8
Direct configuration=     1
   0.25000000  0.02126500  0.86501400
   0.74999900  0.97874100  0.13499200
   0.75000000  0.52131000  0.63496800
   0.25000100  0.47868900  0.36502400
   0.25000000  0.71244700  0.53693000
   0.75000000  0.21232300  0.96305200
   0.25000000  0.78767800  0.03695300
   0.75000000  0.28755100  0.46306600
   0.25000000  0.19132200  0.21631000
   0.25000000  0.30854000  0.71624800
   0.75000000  0.69145800  0.28375200
   0.75000000  0.80867700  0.78369200
Direct configuration=     2
   0.24999843  0.02331402  0.86631219
   0.74999806  0.97669374  0.13368787
   0.74999901  0.52333815  0.63366530
   0.25000003  0.47665038  0.36633320
   0.25000074  0.69295616  0.54498158
   0.75000137  0.19289288  0.95501009
   0.25000074  0.80710944  0.04499652
   0.75000022  0.30704153  0.45501435
   0.24999964  0.17892576  0.21088312
   0.25000062  0.32101946  0.71082674
   0.75000055  0.67898477  0.28917080
   0.75000058  0.82107471  0.78911923
Direct configuration=     3
   0.24999836  0.02339994  0.86636662
   0.74999803  0.97660789  0.13363319
   0.74999897  0.52342319  0.63361068
   0.24999999  0.47656490  0.36638809
   0.25000077  0.69213889  0.54531919
   0.75000142  0.19207816  0.95467289
   0.25000077  0.80792422  0.04533380
   0.75000023  0.30785879  0.45467673
   0.24999963  0.17840598  0.21065557
   0.25000065  0.32154274  0.71059943
   0.75000057  0.67846175  0.28939801
   0.75000060  0.82159455  0.78934680
Direct configuration=     4
   0.25000060  0.02665274  0.86434316
   0.74999971  0.97334723  0.13565826
   0.75000009  0.52668286  0.63563522
   0.24999986  0.47331897  0.36435475
   0.25000017  0.69156049  0.54698130
   0.74999991  0.19152406  0.95301593
   0.24999948  0.80848172  0.04699156
   0.75000022  0.30843023  0.45302375
   0.24999930  0.17997230  0.21079017
   0.25000025  0.32000049  0.71074612
   0.75000037  0.68000458  0.28925086
   0.75000003  0.82002534  0.78920992
Direct configuration=     5
   0.25000733  0.03641115  0.85827276
   0.75000478  0.96356523  0.14173348
   0.75000344  0.53646187  0.64170886
   0.24999949  0.46358119  0.35825470
   0.24999836  0.68982527  0.55196762
   0.74999537  0.18986177  0.94804505
   0.24999561  0.81015421  0.05196485
   0.75000019  0.31014457  0.44806482
   0.24999832  0.18467126  0.21119399
   0.24999906  0.31537374  0.71118619
   0.74999976  0.68463305  0.28880940
   0.74999829  0.81531769  0.78879926
Direct configuration=     6
   0.25002077  0.05592796  0.84613197
   0.75001492  0.94400123  0.15388391
   0.75001013  0.55601988  0.65385612
   0.24999873  0.44410562  0.34605462
   0.24999475  0.68635484  0.56194026
   0.74998628  0.18653717  0.93810330
   0.24998786  0.81349921  0.06191144
   0.75000014  0.31357325  0.43814695
   0.24999637  0.19406918  0.21200164
   0.24999667  0.30612025  0.71206634
   0.74999855  0.69389000  0.28792649
   0.74999483  0.80590240  0.78797796
Direct configuration=     7
   0.25001401  0.04611749  0.85223475
   0.75000983  0.95383542  0.14777629
   0.75000677  0.54618870  0.64775008
   0.24999911  0.45389536  0.35218721
   0.24999656  0.68809931  0.55692734
   0.74999085  0.18820834  0.94310070
   0.24999176  0.81181779  0.05691161
   0.75000016  0.31184977  0.44313234
   0.24999735  0.18934515  0.21159566
   0.24999787  0.31077168  0.71162392
   0.74999916  0.68923683  0.28837030
   0.74999657  0.81063516  0.78839080
Direct configuration=     8
   0.25001739  0.05102272  0.84918336
   0.75001237  0.94891832  0.15083010
   0.75000845  0.55110429  0.65080310
   0.24999892  0.44900049  0.34912091
   0.24999566  0.68722707  0.55943380
   0.74998856  0.18737275  0.94060200
   0.24998981  0.81265850  0.05941153
   0.75000015  0.31271151  0.44063964
   0.24999686  0.19170716  0.21179865
   0.24999727  0.30844597  0.71184513
   0.74999885  0.69156342  0.28814840
   0.74999570  0.80826878  0.78818438
Direct configuration=     9
   0.25001749  0.05158214  0.84896408
   0.75001243  0.94835923  0.15104901
   0.75000848  0.55166288  0.65102281
   0.24999890  0.44844186  0.34890105
   0.24999566  0.68716031  0.55974855
   0.74998852  0.18730755  0.94028736
   0.24998975  0.81272351  0.05972629
   0.75000013  0.31277890  0.44032512
   0.24999686  0.19194511  0.21179919
   0.24999726  0.30821002  0.71184767
   0.74999883  0.69179870  0.28814612
   0.74999570  0.80803078  0.78818376
Direct configuration=    10
   0.25001777  0.05326038  0.84830622
   0.75001258  0.94668197  0.15170574
   0.75000858  0.55333862  0.65168192
   0.24999884  0.44676596  0.34824147
   0.24999566  0.68696003  0.56069282
   0.74998840  0.18711194  0.93934342
   0.24998959  0.81291853  0.06067057
   0.75000007  0.31298106  0.43938154
   0.24999686  0.19265896  0.21180079
   0.24999723  0.30750219  0.71185528
   0.74999875  0.69250457  0.28813929
   0.74999568  0.80731679  0.78818192
Direct configuration=    11
   0.25001833  0.05661686  0.84699050
   0.75001288  0.94332743  0.15301920
   0.75000878  0.55669012  0.65300016
   0.24999871  0.44341418  0.34692232
   0.24999565  0.68655947  0.56258135
   0.74998816  0.18672073  0.93745556
   0.24998926  0.81330858  0.06255913
   0.74999994  0.31338538  0.43749440
   0.24999687  0.19408666  0.21180401
   0.24999717  0.30608652  0.71187051
   0.74999860  0.69391629  0.28812564
   0.74999564  0.80588879  0.78817823
Direct configuration=    12
   0.25001745  0.05689615  0.84717284
   0.75001232  0.94305268  0.15283486
   0.75000825  0.55696310  0.65281850
   0.24999882  0.44313507  0.34710719
   0.24999593  0.68663172  0.56287530
   0.74998880  0.18678730  0.93715989
   0.24998971  0.81323991  0.06285484
   0.74999988  0.31331827  0.43719727
   0.24999701  0.19408202  0.21170043
   0.24999732  0.30608743  0.71176817
   0.74999861  0.69391294  0.28822912
   0.74999590  0.80589439  0.78828258
Direct configuration=    13
   0.25001481  0.05773401  0.84771989
   0.75001063  0.94222841  0.15228184
   0.75000665  0.55778206  0.65227353
   0.24999916  0.44229776  0.34766180
   0.24999676  0.68684848  0.56375716
   0.74999072  0.18698703  0.93627287
   0.24999107  0.81303392  0.06374198
   0.74999971  0.31311695  0.43630591
   0.24999742  0.19406812  0.21138967
   0.24999779  0.30609017  0.71146116
   0.74999863  0.69390290  0.28853958
   0.74999666  0.80591119  0.78859562
Direct configuration=    14
   0.25000952  0.05940975  0.84881398
   0.75000725  0.94057988  0.15117580
   0.75000345  0.55941998  0.65118359
   0.24999983  0.44062313  0.34877103
   0.24999842  0.68728198  0.56552088
   0.74999455  0.18738647  0.93449882
   0.24999379  0.81262193  0.06551626
   0.74999936  0.31271430  0.43452317
   0.24999824  0.19404032  0.21076815
   0.24999874  0.30609564  0.71084713
   0.74999866  0.69388282  0.28916049
   0.74999820  0.80594479  0.78922170
Direct configuration=    15
   0.24999896  0.06276121  0.85100217
   0.75000048  0.93728281  0.14896373
   0.74999706  0.56269582  0.64900370
   0.25000117  0.43727387  0.35098948
   0.25000174  0.68814900  0.56904831
   0.75000221  0.18818536  0.93095073
   0.24999922  0.81179796  0.06906481
   0.74999867  0.31190900  0.43095769
   0.24999989  0.19398471  0.20952513
   0.25000062  0.30610659  0.70961908
   0.74999874  0.69384267  0.29040232
   0.75000126  0.80601200  0.79047385
Direct configuration=    16
   0.25000325  0.06139870  0.85011258
   0.75000323  0.93862321  0.14986303
   0.74999966  0.56136405  0.64988992
   0.25000063  0.43863549  0.35008759
   0.25000039  0.68779652  0.56761426
   0.74999909  0.18786058  0.93239318
   0.24999701  0.81213294  0.06762217
   0.74999895  0.31223639  0.43240721
   0.24999922  0.19400731  0.21003047
   0.24999985  0.30610214  0.71011834
   0.74999871  0.69385899  0.28989746
   0.75000001  0.80598468  0.78996480
Direct configuration=    17
   0.25000207  0.06154110  0.85016388
   0.75000195  0.93847838  0.14981452
   0.74999933  0.56151065  0.64984417
   0.25000048  0.43848488  0.35013806
   0.25000049  0.68900465  0.56773420
   0.74999998  0.18905851  0.93227135
   0.24999808  0.81093067  0.06774190
   0.74999909  0.31103197  0.43228377
   0.24999947  0.19414191  0.20973066
   0.24999997  0.30596127  0.70981478
   0.74999883  0.69400488  0.29019822
   0.75000025  0.80585213  0.79026550
Direct configuration=    18
   0.24999853  0.06196832  0.85031780
   0.74999813  0.93804388  0.14966898
   0.74999837  0.56195043  0.64970693
   0.25000006  0.43803306  0.35028947
   0.25000081  0.69262905  0.56809404
   0.75000265  0.19265232  0.93190586
   0.25000128  0.80732388  0.06810109
   0.74999952  0.30741872  0.43191344
   0.25000021  0.19454568  0.20883122
   0.25000031  0.30553864  0.70890409
   0.74999920  0.69444253  0.29110049
   0.75000095  0.80545450  0.79116760
Direct configuration=    19
   0.24999145  0.06282276  0.85062563
   0.74999048  0.93717487  0.14937791
   0.74999643  0.56283000  0.64943245
   0.24999920  0.43712941  0.35059228
   0.25000145  0.69987784  0.56881370
   0.75000797  0.19983992  0.93117488
   0.25000769  0.80011030  0.06881946
   0.75000037  0.30019222  0.43117280
   0.25000170  0.19535322  0.20703235
   0.25000100  0.30469339  0.70708271
   0.74999993  0.69531783  0.29290503
   0.75000235  0.80465924  0.79297180
Direct configuration=    20
   0.24997729  0.06453163  0.85124130
   0.74997517  0.93543687  0.14879577
   0.74999255  0.56458913  0.64888349
   0.24999749  0.43532212  0.35119791
   0.25000271  0.71437542  0.57025303
   0.75001863  0.21421514  0.92971291
   0.25002051  0.78568313  0.07025620
   0.75000207  0.28573923  0.42969150
   0.25000467  0.19696832  0.20343460
   0.25000237  0.30300288  0.70343997
   0.75000139  0.69706843  0.29651411
   0.75000516  0.80306872  0.79658020
Direct configuration=    21
   0.24998294  0.06385011  0.85099576
   0.74998128  0.93613001  0.14902794
   0.74999410  0.56388757  0.64910242
   0.24999817  0.43604289  0.35095638
   0.25000221  0.70859361  0.56967901
   0.75001438  0.20848214  0.93029596
   0.25001540  0.79143685  0.06968321
   0.75000139  0.29150325  0.43028226
   0.25000348  0.19632420  0.20486942
   0.25000182  0.30367707  0.70489274
   0.75000081  0.69637027  0.29507477
   0.75000404  0.80370304  0.79514113
Direct configuration=    22
   0.24999766  0.06676205  0.85044832
   0.74999713  0.93319557  0.14956304
   0.74999860  0.56685300  0.64961083
   0.25000034  0.43316155  0.35040866
   0.24999891  0.70991381  0.57011256
   0.75000168  0.20986283  0.92990462
   0.25000182  0.79009535  0.07008718
   0.75000011  0.29011410  0.42988163
   0.25000105  0.19661307  0.20409276
   0.25000082  0.30337603  0.70411736
   0.75000044  0.69666439  0.29586089
   0.75000145  0.80338925  0.79591314
Direct configuration=    23
   0.25003843  0.07482334  0.84893281
   0.75004103  0.92507201  0.15104441
   0.75001107  0.57506240  0.65101830
   0.25000635  0.42518496  0.34889237
   0.24998977  0.71356860  0.57131278
   0.74996650  0.21368507  0.92882126
   0.24996422  0.78638158  0.07120550
   0.74999658  0.28626845  0.42877254
   0.24999432  0.19741276  0.20194270
   0.24999804  0.30254265  0.70197084
   0.74999941  0.69747864  0.29803714
   0.74999429  0.80252056  0.79805035
Direct configuration=    24
   0.25004455  0.07603377  0.84870525
   0.75004762  0.92385223  0.15126684
   0.75001294  0.57629506  0.65122964
   0.25000725  0.42398725  0.34866470
   0.24998840  0.71411738  0.57149300
   0.74996122  0.21425899  0.92865859
   0.24995858  0.78582394  0.07137342
   0.74999605  0.28569101  0.42860600
   0.24999331  0.19753283  0.20161986
   0.24999762  0.30241751  0.70164853
   0.74999926  0.69760090  0.29836391
   0.74999321  0.80239013  0.79837125
Direct configuration=    25
   0.24998564  0.07910235  0.84869251
   0.74998497  0.92099818  0.15127982
   0.74999430  0.57899911  0.65135853
   0.24999802  0.42091986  0.34865821
   0.25000468  0.71549085  0.57258589
   0.75001329  0.21534945  0.92742162
   0.25001461  0.78460771  0.07257016
   0.75000326  0.28461595  0.42736452
   0.25000069  0.19456896  0.20036266
   0.25000009  0.30536218  0.70038911
   0.75000106  0.69455549  0.29966166
   0.74999940  0.80543091  0.79965630
Direct configuration=    26
   0.24998438  0.07916805  0.84869224
   0.74998363  0.92093707  0.15128010
   0.74999390  0.57905701  0.65136129
   0.24999782  0.42085418  0.34865807
   0.25000503  0.71552025  0.57260930
   0.75001440  0.21537280  0.92739513
   0.25001581  0.78458166  0.07259578
   0.75000342  0.28459294  0.42733794
   0.25000085  0.19450550  0.20033574
   0.25000014  0.30542523  0.70036214
   0.75000109  0.69449029  0.29968945
   0.74999953  0.80549601  0.79968381
Direct configuration=    27
   0.24997618  0.08066365  0.84782933
   0.74997224  0.91938285  0.15220456
   0.74999162  0.58056453  0.65226286
   0.24999682  0.41930351  0.34777893
   0.25000615  0.71808151  0.57297713
   0.75002381  0.21793711  0.92700572
   0.25002647  0.78200502  0.07297478
   0.75000275  0.28203927  0.42697032
   0.25000266  0.19093828  0.20001670
   0.24999975  0.30905248  0.70002864
   0.75000064  0.69095115  0.29996200
   0.75000093  0.80908164  0.79999004
Direct configuration=    28
   0.24996932  0.08191212  0.84710901
   0.74996273  0.91808544  0.15297627
   0.74998972  0.58182297  0.65301545
   0.24999598  0.41800906  0.34704505
   0.25000708  0.72021955  0.57328418
   0.75003166  0.22007769  0.92668065
   0.25003537  0.77985413  0.07329115
   0.75000219  0.27990757  0.42666345
   0.25000417  0.18796049  0.19975038
   0.24999942  0.31208039  0.69975024
   0.75000026  0.68799681  0.30018951
   0.75000210  0.81207479  0.80024566
Direct configuration=    29
   0.25002876  0.08511940  0.84693673
   0.75002916  0.91476164  0.15307134
   0.75000647  0.58529007  0.65305935
   0.25000284  0.41480377  0.34691578
   0.24999133  0.72307198  0.57365489
   0.74998172  0.22317263  0.92641069
   0.24997767  0.77688990  0.07362372
   0.74999542  0.27685481  0.42638328
   0.24999622  0.18467928  0.20066670
   0.24999642  0.31535732  0.70069316
   0.74999789  0.68470192  0.29927043
   0.74999609  0.81529827  0.79931494
Direct configuration=    30
   0.25011054  0.08953239  0.84669969
   0.75012057  0.91018833  0.15320214
   0.75002953  0.59006056  0.65311974
   0.25001227  0.41039353  0.34673790
   0.24996965  0.72699672  0.57416496
   0.74991299  0.22743103  0.92603925
   0.24989829  0.77281133  0.07408131
   0.74998610  0.27265445  0.42599779
   0.24998528  0.18016459  0.20192749
   0.24999230  0.31986614  0.70199055
   0.74999464  0.68016840  0.29800583
   0.74998783  0.81973353  0.79803434
Direct configuration=    31
   0.25014552  0.09141984  0.84659831
   0.75015966  0.90823231  0.15325808
   0.75003939  0.59210091  0.65314557
   0.25001631  0.40850725  0.34666183
   0.24996037  0.72867535  0.57438312
   0.74988360  0.22925236  0.92588038
   0.24986434  0.77106691  0.07427702
   0.74998212  0.27085794  0.42583292
   0.24998061  0.17823363  0.20246673
   0.24999054  0.32179458  0.70254545
   0.74999325  0.67822939  0.29746496
   0.74998429  0.82163052  0.79748662
Direct configuration=    32
   0.25008927  0.09369278  0.84694104
   0.75009757  0.90617941  0.15294351
   0.75002111  0.59406748  0.65289505
   0.25000753  0.40629601  0.34697316
   0.24997580  0.73049358  0.57417664
   0.74993189  0.23082662  0.92595762
   0.24992016  0.76933792  0.07413281
   0.74998894  0.26922728  0.42594387
   0.24998821  0.17555377  0.20269448
   0.24999335  0.32446006  0.70276815
   0.74999447  0.67547614  0.29727970
   0.74999173  0.82438995  0.79729498
Direct configuration=    33
   0.24992051  0.10051158  0.84796923
   0.74991128  0.90002071  0.15199978
   0.74996628  0.59996720  0.65214349
   0.24998117  0.39966226  0.34790716
   0.25002209  0.73594826  0.57355721
   0.75007676  0.23554940  0.92618934
   0.25008760  0.76415096  0.07370019
   0.75000939  0.26433530  0.42627671
   0.25001103  0.16751418  0.20337772
   0.25000176  0.33245651  0.70343623
   0.74999812  0.66721636  0.29672391
   0.75001402  0.83266826  0.79672003
Direct configuration=    34
   0.24958298  0.11414918  0.85002561
   0.74953872  0.88770332  0.15011232
   0.74985661  0.61176664  0.65064036
   0.24992847  0.38639478  0.34977516
   0.25011466  0.74685764  0.57231835
   0.75036649  0.24499495  0.92665277
   0.25042248  0.75377705  0.07283494
   0.75005030  0.25455134  0.42694241
   0.25005665  0.15143502  0.20474419
   0.25001860  0.34844940  0.70477240
   0.75000542  0.65069681  0.29561233
   0.75005861  0.84922487  0.79557015
Direct configuration=    35
   0.24977001  0.10659216  0.84888611
   0.74974517  0.89452877  0.15115822
   0.74991738  0.60522821  0.65147329
   0.24995768  0.39374670  0.34874005
   0.25006336  0.74081242  0.57300484
   0.75020594  0.23976088  0.92639597
   0.25023691  0.75952556  0.07331440
   0.75002763  0.25997294  0.42657353
   0.25003137  0.16034498  0.20398698
   0.25000927  0.33958725  0.70403199
   0.75000137  0.65985081  0.29622829
   0.75003390  0.84005034  0.79620734
Direct configuration=    36
   0.24976679  0.10799487  0.84894070
   0.74974150  0.89310105  0.15111752
   0.74991670  0.60664668  0.65142673
   0.24995768  0.39233468  0.34879414
   0.25006389  0.74196106  0.57272132
   0.75020749  0.24091489  0.92668088
   0.25024048  0.75837556  0.07303087
   0.75002726  0.25882019  0.42685797
   0.25003215  0.15864319  0.20408781
   0.25000971  0.34130022  0.70412647
   0.75000155  0.65816346  0.29611745
   0.75003479  0.84174515  0.79609914
Direct configuration=    37
   0.24975712  0.11220300  0.84910449
   0.74973048  0.88881788  0.15099541
   0.74991465  0.61090208  0.65128707
   0.24995770  0.38809862  0.34895641
   0.25006550  0.74540701  0.57187077
   0.75021215  0.24437692  0.92753560
   0.25025120  0.75492558  0.07218028
   0.75002616  0.25536194  0.42771128
   0.25003451  0.15353781  0.20439030
   0.25001101  0.34643915  0.70440991
   0.75000207  0.65310142  0.29578493
   0.75003746  0.84682958  0.79577453
Direct configuration=    38
   0.24973777  0.12061926  0.84943206
   0.74970846  0.88025153  0.15075119
   0.74991056  0.61941289  0.65100774
   0.24995775  0.37962649  0.34928097
   0.25006871  0.75229889  0.57016966
   0.75022146  0.25130099  0.92924506
   0.25027262  0.74802562  0.07047909
   0.75002395  0.24844544  0.42941792
   0.25003921  0.14332706  0.20499529
   0.25001361  0.35671702  0.70497680
   0.75000311  0.64297735  0.29511990
   0.75004279  0.85699845  0.79512533
Direct configuration=    39
   0.24969909  0.13745178  0.85008721
   0.74966440  0.86311885  0.15026275
   0.74990237  0.63643452  0.65044909
   0.24995783  0.36268223  0.34993007
   0.25007512  0.76608267  0.56676744
   0.75024009  0.26514912  0.93266396
   0.25031548  0.73422569  0.06707672
   0.75001954  0.23461245  0.43283120
   0.25004863  0.12290556  0.20620525
   0.25001881  0.37727274  0.70611057
   0.75000519  0.62272920  0.29378982
   0.75005346  0.87733618  0.79382691
Direct configuration=    40
   0.24989697  0.14010566  0.84989137
   0.74988995  0.85997741  0.15028064
   0.74996508  0.63985450  0.65029289
   0.24998315  0.35990105  0.34986303
   0.25002527  0.76626953  0.56657107
   0.75007130  0.26598581  0.93324014
   0.25012018  0.73379798  0.06671341
   0.75000055  0.23395009  0.43329509
   0.25001707  0.12107714  0.20629229
   0.25000739  0.37908468  0.70622507
   0.75000032  0.62101381  0.29365577
   0.75002276  0.87898335  0.79368024
